/*--------------------------------*- C++ -*----------------------------------*\
| =========                 |                                                 |
| \\      /  F ield         | OpenFOAM: The Open Source CFD Toolbox           |
|  \\    /   O peration     | Version:  4.0                                   |
|   \\  /    A nd           | Web:      www.OpenFOAM.org                      |
|    \\/     M anipulation  |                                                 |
\*---------------------------------------------------------------------------*/
FoamFile
{
    version     2.0;
    format      ascii;
    class       volScalarField;
    location    "0";
    object      alpha.sand;
}
// * * * * * * * * * * * * * * * * * * * * * * * * * * * * * * * * * * * * * //

dimensions      [0 0 0 0 0 0 0];

internalField   nonuniform List<scalar> 
720
(
0.606113
0.606106
0.606098
0.606092
0.606084
0.606077
0.606069
0.606062
0.606055
0.606047
0.60604
0.606033
0.606025
0.606018
0.60601
0.606003
0.605995
0.605987
0.605979
0.605972
0.605964
0.605957
0.605949
0.605941
0.605933
0.605926
0.605918
0.60591
0.605902
0.605895
0.605887
0.605879
0.605871
0.605863
0.605855
0.605847
0.605839
0.605831
0.605823
0.605815
0.605807
0.605799
0.605791
0.605782
0.605774
0.605766
0.605758
0.605749
0.605741
0.605733
0.605725
0.605716
0.605708
0.605699
0.605691
0.605682
0.605674
0.605665
0.605657
0.605648
0.605639
0.60563
0.605622
0.605613
0.605604
0.605595
0.605587
0.605578
0.605569
0.60556
0.605552
0.605542
0.605534
0.605524
0.605515
0.605506
0.605498
0.605488
0.605479
0.60547
0.605461
0.605452
0.605442
0.605433
0.605423
0.605414
0.605404
0.605395
0.605385
0.605376
0.605366
0.605357
0.605347
0.605338
0.605328
0.605318
0.605308
0.605299
0.605289
0.605279
0.605269
0.605259
0.605249
0.605239
0.605229
0.605219
0.605209
0.605199
0.605189
0.605178
0.605168
0.605158
0.605148
0.605137
0.605127
0.605116
0.605106
0.605095
0.605085
0.605074
0.605063
0.605052
0.605042
0.605031
0.60502
0.605009
0.604998
0.604988
0.604977
0.604966
0.604955
0.604943
0.604932
0.604921
0.604909
0.604898
0.604886
0.604876
0.604864
0.604853
0.604841
0.604829
0.604817
0.604806
0.604794
0.604782
0.60477
0.604758
0.604746
0.604734
0.604722
0.60471
0.604698
0.604686
0.604674
0.604661
0.604649
0.604636
0.604624
0.604611
0.604599
0.604586
0.604573
0.604561
0.604548
0.604534
0.604521
0.604509
0.604495
0.604483
0.604469
0.604456
0.604442
0.60443
0.604416
0.604402
0.604388
0.604375
0.604361
0.604348
0.604334
0.60432
0.604306
0.604292
0.604278
0.604263
0.604249
0.604234
0.60422
0.604205
0.604191
0.604176
0.604161
0.604146
0.604131
0.604116
0.604101
0.604086
0.604071
0.604056
0.604041
0.604026
0.60401
0.603994
0.603978
0.603963
0.603947
0.603931
0.603915
0.603898
0.603882
0.603866
0.60385
0.603833
0.603816
0.603799
0.603782
0.603765
0.603749
0.603731
0.603714
0.603697
0.603679
0.603662
0.603644
0.603627
0.603609
0.603591
0.603573
0.603554
0.603536
0.603517
0.603499
0.60348
0.603461
0.603442
0.603424
0.603405
0.603385
0.603366
0.603346
0.603326
0.603306
0.603287
0.603267
0.603246
0.603226
0.603205
0.603185
0.603164
0.603143
0.603121
0.6031
0.603079
0.603057
0.603036
0.603014
0.602991
0.602969
0.602946
0.602924
0.602901
0.602879
0.602855
0.602832
0.602809
0.602785
0.602761
0.602737
0.602712
0.602688
0.602663
0.602639
0.602614
0.602588
0.602563
0.602537
0.602511
0.602485
0.602458
0.602432
0.602405
0.602377
0.60235
0.602322
0.602294
0.602266
0.602238
0.602209
0.602181
0.602151
0.602122
0.602092
0.602061
0.602031
0.602
0.601969
0.601938
0.601906
0.601874
0.601842
0.601808
0.601775
0.601742
0.601708
0.601674
0.601639
0.601604
0.601569
0.601533
0.601497
0.60146
0.601423
0.601386
0.601347
0.601308
0.601269
0.60123
0.60119
0.601149
0.601108
0.601067
0.601024
0.600982
0.600938
0.600894
0.60085
0.600804
0.600759
0.600712
0.600665
0.600616
0.600567
0.600518
0.600468
0.600417
0.600364
0.600311
0.600257
0.600202
0.600147
0.60009
0.600032
0.599974
0.599913
0.599853
0.59979
0.599727
0.599662
0.599596
0.599529
0.599459
0.599389
0.599317
0.599243
0.599168
0.59909
0.599012
0.59893
0.598847
0.598762
0.598675
0.598585
0.598492
0.598397
0.598299
0.598198
0.598094
0.597986
0.597876
0.597761
0.597641
0.597518
0.59739
0.597257
0.597117
0.596973
0.596822
0.596663
0.596497
0.596322
0.596138
0.595943
0.595737
0.595517
0.595283
0.595031
0.59476
0.594465
0.594144
0.593788
0.593397
0.592949
0.592444
0.591839
0.591134
0.590189
0.589006
0.441311
0.147103
0
0
0
0
0
0
0
0
0
0
0
0
0
0
0
0
0
0
0
0
0
0
0
0
0
0
0
0
0
0
0
0
0
0
0
0
0
0
0
0
0
0
0
0
0
0
0
0
0
0
0
0
0
0
0
0
0
0
0
0
0
0
0
0
0
0
0
0
0
0
0
0
0
0
0
0
0
0
0
0
0
0
0
0
0
0
0
0
0
0
0
0
0
0
0
0
0
0
0
0
0
0
0
0
0
0
0
0
0
0
0
0
0
0
0
0
0
0
0
0
0
0
0
0
0
0
0
0
0
0
0
0
0
0
0
0
0
0
0
0
0
0
0
0
0
0
0
0
0
0
0
0
0
0
0
0
0
0
0
0
0
0
0
0
0
0
0
0
0
0
0
0
0
0
0
0
0
0
0
0
0
0
0
0
0
0
0
0
0
0
0
0
0
0
0
0
0
0
0
0
0
0
0
0
0
0
0
0
0
0
0
0
0
0
0
0
0
0
0
0
0
0
0
0
0
0
0
0
0
0
0
0
0
0
0
0
0
0
0
0
0
0
0
0
0
0
0
0
0
0
0
0
0
0
0
0
0
0
0
0
0
0
0
0
0
0
0
0
0
0
0
0
0
0
0
0
0
0
0
0
0
0
0
0
0
0
0
0
0
0
0
0
0
0
0
0
0
0
0
0
0
0
0
0
0
0
0
0
0
0
0
0
0
0
0
0
0
0
0
0
)
;

boundaryField
{
    inandouthalf11
    {
        type            cyclic;
    }
    inandouthalf12
    {
        type            cyclic;
    }
    inandouthalf21
    {
        type            cyclic;
    }
    inandouthalf22
    {
        type            cyclic;
    }
    inandouthalf31
    {
        type            cyclic;
    }
    inandouthalf32
    {
        type            cyclic;
    }
    inandouthalf41
    {
        type            cyclic;
    }
    inandouthalf42
    {
        type            cyclic;
    }
    top
    {
        type            symmetryPlane;
    }
    walls
    {
        type            zeroGradient;
    }
    frontAndBackPlanes
    {
        type            empty;
    }
}


// ************************************************************************* //
