/*--------------------------------*- C++ -*----------------------------------*\
| =========                 |                                                 |
| \\      /  F ield         | OpenFOAM: The Open Source CFD Toolbox           |
|  \\    /   O peration     | Version:  4.0                                   |
|   \\  /    A nd           | Web:      www.OpenFOAM.org                      |
|    \\/     M anipulation  |                                                 |
\*---------------------------------------------------------------------------*/
FoamFile
{
    version     2.0;
    format      ascii;
    class       volScalarField;
    location    "0";
    object      alpha.water;
}
// * * * * * * * * * * * * * * * * * * * * * * * * * * * * * * * * * * * * * //

dimensions      [0 0 0 0 0 0 0];

internalField   nonuniform List<scalar> 
720
(
0.393887
0.393894
0.393902
0.393908
0.393916
0.393923
0.393931
0.393938
0.393946
0.393952
0.39396
0.393967
0.393975
0.393982
0.39399
0.393997
0.394005
0.394013
0.394021
0.394028
0.394036
0.394043
0.394051
0.394059
0.394067
0.394074
0.394082
0.39409
0.394098
0.394105
0.394113
0.394121
0.394129
0.394137
0.394145
0.394153
0.394161
0.394169
0.394177
0.394185
0.394193
0.394201
0.394209
0.394218
0.394226
0.394234
0.394242
0.394251
0.394259
0.394267
0.394275
0.394284
0.394292
0.394301
0.394309
0.394318
0.394326
0.394335
0.394343
0.394352
0.394361
0.394369
0.394378
0.394387
0.394396
0.394404
0.394413
0.394422
0.394431
0.394439
0.394448
0.394457
0.394466
0.394475
0.394485
0.394493
0.394502
0.394512
0.394521
0.39453
0.394539
0.394548
0.394558
0.394567
0.394577
0.394586
0.394596
0.394605
0.394615
0.394624
0.394634
0.394643
0.394653
0.394662
0.394672
0.394682
0.394692
0.394701
0.394711
0.394721
0.394731
0.394741
0.394751
0.394761
0.394771
0.394781
0.394791
0.394801
0.394811
0.394822
0.394832
0.394842
0.394852
0.394863
0.394873
0.394884
0.394894
0.394905
0.394915
0.394926
0.394936
0.394948
0.394958
0.394969
0.394979
0.394991
0.395002
0.395012
0.395023
0.395035
0.395045
0.395057
0.395068
0.395079
0.395091
0.395102
0.395114
0.395124
0.395136
0.395147
0.395159
0.395171
0.395183
0.395194
0.395206
0.395218
0.39523
0.395242
0.395254
0.395266
0.395278
0.39529
0.395302
0.395314
0.395326
0.395339
0.395351
0.395364
0.395376
0.395389
0.395401
0.395414
0.395427
0.395439
0.395452
0.395466
0.395479
0.395491
0.395505
0.395517
0.395531
0.395544
0.395558
0.39557
0.395584
0.395598
0.395612
0.395625
0.395639
0.395652
0.395666
0.39568
0.395694
0.395708
0.395722
0.395737
0.395751
0.395766
0.39578
0.395795
0.395809
0.395824
0.395838
0.395854
0.395869
0.395883
0.395898
0.395914
0.395929
0.395944
0.395959
0.395974
0.39599
0.396006
0.396022
0.396037
0.396053
0.396069
0.396085
0.396102
0.396118
0.396134
0.39615
0.396167
0.396184
0.3962
0.396218
0.396234
0.396252
0.396269
0.396286
0.396303
0.396321
0.396338
0.396356
0.396373
0.396391
0.396409
0.396427
0.396446
0.396464
0.396483
0.396501
0.39652
0.396539
0.396558
0.396576
0.396595
0.396615
0.396634
0.396654
0.396674
0.396694
0.396713
0.396733
0.396754
0.396774
0.396795
0.396816
0.396837
0.396857
0.396879
0.3969
0.396921
0.396943
0.396964
0.396986
0.397009
0.397031
0.397054
0.397076
0.397099
0.397122
0.397145
0.397168
0.397191
0.397215
0.397239
0.397263
0.397288
0.397312
0.397337
0.397361
0.397386
0.397412
0.397437
0.397463
0.397489
0.397515
0.397542
0.397568
0.397595
0.397623
0.39765
0.397678
0.397706
0.397734
0.397762
0.397791
0.397819
0.397849
0.397878
0.397908
0.397939
0.397969
0.398
0.398031
0.398062
0.398094
0.398126
0.398159
0.398191
0.398225
0.398258
0.398292
0.398326
0.398361
0.398396
0.398431
0.398467
0.398503
0.39854
0.398577
0.398614
0.398653
0.398691
0.398731
0.39877
0.39881
0.398851
0.398892
0.398933
0.398975
0.399018
0.399062
0.399106
0.39915
0.399196
0.399241
0.399288
0.399335
0.399384
0.399433
0.399482
0.399533
0.399583
0.399635
0.399689
0.399743
0.399797
0.399853
0.39991
0.399968
0.400027
0.400087
0.400147
0.40021
0.400273
0.400338
0.400404
0.400471
0.400541
0.400611
0.400683
0.400757
0.400832
0.40091
0.400988
0.40107
0.401152
0.401238
0.401325
0.401415
0.401508
0.401603
0.401701
0.401802
0.401906
0.402013
0.402124
0.402239
0.402359
0.402482
0.40261
0.402743
0.402882
0.403027
0.403178
0.403337
0.403503
0.403678
0.403862
0.404057
0.404263
0.404483
0.404717
0.404969
0.40524
0.405535
0.405856
0.406212
0.406603
0.407051
0.407556
0.408161
0.408866
0.409811
0.410994
0.558689
0.852897
1
1
1
1
1
1
1
1
1
1
1
1
1
1
1
1
1
1
1
1
1
1
1
1
1
1
1
1
1
1
1
1
1
1
1
1
1
1
1
1
1
1
1
1
1
1
1
1
1
1
1
1
1
1
1
1
1
1
1
1
1
1
1
1
1
1
1
1
1
1
1
1
1
1
1
1
1
1
1
1
1
1
1
1
1
1
1
1
1
1
1
1
1
1
1
1
1
1
1
1
1
1
1
1
1
1
1
1
1
1
1
1
1
1
1
1
1
1
1
1
1
1
1
1
1
1
1
1
1
1
1
1
1
1
1
1
1
1
1
1
1
1
1
1
1
1
1
1
1
1
1
1
1
1
1
1
1
1
1
1
1
1
1
1
1
1
1
1
1
1
1
1
1
1
1
1
1
1
1
1
1
1
1
1
1
1
1
1
1
1
1
1
1
1
1
1
1
1
1
1
1
1
1
1
1
1
1
1
1
1
1
1
1
1
1
1
1
1
1
1
1
1
1
1
1
1
1
1
1
1
1
1
1
1
1
1
1
1
1
1
1
1
1
1
1
1
1
1
1
1
1
1
1
1
1
1
1
1
1
1
1
1
1
1
1
1
1
1
1
1
1
1
1
1
1
1
1
1
1
1
1
1
1
1
1
1
1
1
1
1
1
1
1
1
1
1
1
1
1
1
1
1
1
1
1
1
1
1
1
1
1
1
1
1
1
1
1
1
1
1
)
;

boundaryField
{
    inandouthalf11
    {
        type            cyclic;
    }
    inandouthalf12
    {
        type            cyclic;
    }
    inandouthalf21
    {
        type            cyclic;
    }
    inandouthalf22
    {
        type            cyclic;
    }
    inandouthalf31
    {
        type            cyclic;
    }
    inandouthalf32
    {
        type            cyclic;
    }
    inandouthalf41
    {
        type            cyclic;
    }
    inandouthalf42
    {
        type            cyclic;
    }
    top
    {
        type            symmetryPlane;
    }
    walls
    {
        type            zeroGradient;
    }
    frontAndBackPlanes
    {
        type            empty;
    }
}


// ************************************************************************* //
