/*--------------------------------*- C++ -*----------------------------------*\
| =========                 |                                                 |
| \\      /  F ield         | OpenFOAM: The Open Source CFD Toolbox           |
|  \\    /   O peration     | Version:  4.0                                   |
|   \\  /    A nd           | Web:      www.OpenFOAM.org                      |
|    \\/     M anipulation  |                                                 |
\*---------------------------------------------------------------------------*/
FoamFile
{
    version     2.0;
    format      ascii;
    class       volScalarField;
    location    "0";
    object      alphas;
}
// * * * * * * * * * * * * * * * * * * * * * * * * * * * * * * * * * * * * * //

dimensions      [0 0 0 0 0 0 0];

internalField   nonuniform List<scalar> 
720
(
1.21223
1.21221
1.2122
1.21218
1.21217
1.21215
1.21214
1.21212
1.21211
1.21209
1.21208
1.21207
1.21205
1.21204
1.21202
1.21201
1.21199
1.21197
1.21196
1.21194
1.21193
1.21191
1.2119
1.21188
1.21187
1.21185
1.21184
1.21182
1.2118
1.21179
1.21177
1.21176
1.21174
1.21173
1.21171
1.21169
1.21168
1.21166
1.21165
1.21163
1.21161
1.2116
1.21158
1.21156
1.21155
1.21153
1.21152
1.2115
1.21148
1.21147
1.21145
1.21143
1.21142
1.2114
1.21138
1.21136
1.21135
1.21133
1.21131
1.2113
1.21128
1.21126
1.21124
1.21123
1.21121
1.21119
1.21117
1.21116
1.21114
1.21112
1.2111
1.21108
1.21107
1.21105
1.21103
1.21101
1.211
1.21098
1.21096
1.21094
1.21092
1.2109
1.21088
1.21087
1.21085
1.21083
1.21081
1.21079
1.21077
1.21075
1.21073
1.21071
1.21069
1.21068
1.21066
1.21064
1.21062
1.2106
1.21058
1.21056
1.21054
1.21052
1.2105
1.21048
1.21046
1.21044
1.21042
1.2104
1.21038
1.21036
1.21034
1.21032
1.2103
1.21027
1.21025
1.21023
1.21021
1.21019
1.21017
1.21015
1.21013
1.2101
1.21008
1.21006
1.21004
1.21002
1.21
1.20998
1.20995
1.20993
1.20991
1.20989
1.20986
1.20984
1.20982
1.2098
1.20977
1.20975
1.20973
1.20971
1.20968
1.20966
1.20963
1.20961
1.20959
1.20956
1.20954
1.20952
1.20949
1.20947
1.20944
1.20942
1.2094
1.20937
1.20935
1.20932
1.2093
1.20927
1.20925
1.20922
1.2092
1.20917
1.20915
1.20912
1.2091
1.20907
1.20904
1.20902
1.20899
1.20897
1.20894
1.20891
1.20888
1.20886
1.20883
1.2088
1.20878
1.20875
1.20872
1.2087
1.20867
1.20864
1.20861
1.20858
1.20856
1.20853
1.2085
1.20847
1.20844
1.20841
1.20838
1.20835
1.20832
1.20829
1.20826
1.20823
1.2082
1.20817
1.20814
1.20811
1.20808
1.20805
1.20802
1.20799
1.20796
1.20793
1.20789
1.20786
1.20783
1.2078
1.20776
1.20773
1.2077
1.20767
1.20763
1.2076
1.20756
1.20753
1.2075
1.20746
1.20743
1.20739
1.20736
1.20732
1.20729
1.20725
1.20722
1.20718
1.20715
1.20711
1.20707
1.20703
1.207
1.20696
1.20692
1.20688
1.20685
1.20681
1.20677
1.20673
1.20669
1.20665
1.20661
1.20657
1.20653
1.20649
1.20645
1.20641
1.20637
1.20633
1.20629
1.20624
1.2062
1.20616
1.20611
1.20607
1.20603
1.20598
1.20594
1.20589
1.20585
1.2058
1.20576
1.20571
1.20566
1.20562
1.20557
1.20552
1.20547
1.20542
1.20538
1.20533
1.20528
1.20523
1.20518
1.20513
1.20507
1.20502
1.20497
1.20492
1.20486
1.20481
1.20475
1.2047
1.20464
1.20459
1.20453
1.20448
1.20442
1.20436
1.2043
1.20424
1.20418
1.20412
1.20406
1.204
1.20394
1.20388
1.20381
1.20375
1.20368
1.20362
1.20355
1.20348
1.20342
1.20335
1.20328
1.20321
1.20314
1.20307
1.20299
1.20292
1.20285
1.20277
1.20269
1.20262
1.20254
1.20246
1.20238
1.2023
1.20222
1.20213
1.20205
1.20196
1.20188
1.20179
1.2017
1.20161
1.20152
1.20142
1.20133
1.20123
1.20113
1.20104
1.20093
1.20083
1.20073
1.20062
1.20051
1.2004
1.20029
1.20018
1.20006
1.19995
1.19983
1.19971
1.19958
1.19945
1.19932
1.19919
1.19906
1.19892
1.19878
1.19863
1.19849
1.19834
1.19818
1.19802
1.19786
1.19769
1.19752
1.19735
1.19717
1.19698
1.19679
1.1966
1.1964
1.19619
1.19597
1.19575
1.19552
1.19528
1.19504
1.19478
1.19451
1.19423
1.19395
1.19364
1.19333
1.19299
1.19264
1.19228
1.19189
1.19147
1.19103
1.19057
1.19006
1.18952
1.18893
1.18829
1.18758
1.18679
1.1859
1.18489
1.18368
1.18227
1.18038
1.17801
0.882622
0.294206
0
0
0
0
0
0
0
0
0
0
0
0
0
0
0
0
0
0
0
0
0
0
0
0
0
0
0
0
0
0
0
0
0
0
0
0
0
0
0
0
0
0
0
0
0
0
0
0
0
0
0
0
0
0
0
0
0
0
0
0
0
0
0
0
0
0
0
0
0
0
0
0
0
0
0
0
0
0
0
0
0
0
0
0
0
0
0
0
0
0
0
0
0
0
0
0
0
0
0
0
0
0
0
0
0
0
0
0
0
0
0
0
0
0
0
0
0
0
0
0
0
0
0
0
0
0
0
0
0
0
0
0
0
0
0
0
0
0
0
0
0
0
0
0
0
0
0
0
0
0
0
0
0
0
0
0
0
0
0
0
0
0
0
0
0
0
0
0
0
0
0
0
0
0
0
0
0
0
0
0
0
0
0
0
0
0
0
0
0
0
0
0
0
0
0
0
0
0
0
0
0
0
0
0
0
0
0
0
0
0
0
0
0
0
0
0
0
0
0
0
0
0
0
0
0
0
0
0
0
0
0
0
0
0
0
0
0
0
0
0
0
0
0
0
0
0
0
0
0
0
0
0
0
0
0
0
0
0
0
0
0
0
0
0
0
0
0
0
0
0
0
0
0
0
0
0
0
0
0
0
0
0
0
0
0
0
0
0
0
0
0
0
0
0
0
0
0
0
0
0
0
0
0
0
0
0
0
0
0
0
0
0
0
0
0
0
0
0
0
0
)
;

boundaryField
{
    inandouthalf11
    {
        type            cyclic;
    }
    inandouthalf12
    {
        type            cyclic;
    }
    inandouthalf21
    {
        type            cyclic;
    }
    inandouthalf22
    {
        type            cyclic;
    }
    inandouthalf31
    {
        type            cyclic;
    }
    inandouthalf32
    {
        type            cyclic;
    }
    inandouthalf41
    {
        type            cyclic;
    }
    inandouthalf42
    {
        type            cyclic;
    }
    top
    {
        type            symmetryPlane;
    }
    walls
    {
        type            calculated;
        value           uniform 1.21223;
    }
    frontAndBackPlanes
    {
        type            empty;
    }
}


// ************************************************************************* //
