/*--------------------------------*- C++ -*----------------------------------*\
| =========                 |                                                 |
| \\      /  F ield         | OpenFOAM: The Open Source CFD Toolbox           |
|  \\    /   O peration     | Version:  4.0                                   |
|   \\  /    A nd           | Web:      www.OpenFOAM.org                      |
|    \\/     M anipulation  |                                                 |
\*---------------------------------------------------------------------------*/
FoamFile
{
    version     2.0;
    format      ascii;
    class       volScalarField;
    location    "0";
    object      psf;
}
// * * * * * * * * * * * * * * * * * * * * * * * * * * * * * * * * * * * * * //

dimensions      [1 -1 -2 0 0 0 0];

internalField   nonuniform List<scalar> 
720
(
979.859
977.394
974.93
972.466
970.001
967.537
965.073
962.608
960.144
957.68
955.216
952.752
950.288
947.824
945.359
942.895
940.431
937.967
935.503
933.039
930.575
928.112
925.648
923.184
920.72
918.257
915.793
913.329
910.866
908.402
905.939
903.475
901.011
898.548
896.085
893.621
891.158
888.694
886.231
883.768
881.304
878.841
876.378
873.915
871.452
868.988
866.525
864.062
861.599
859.136
856.673
854.21
851.747
849.284
846.821
844.359
841.896
839.433
836.97
834.508
832.045
829.582
827.12
824.657
822.195
819.732
817.27
814.807
812.344
809.882
807.419
804.957
802.495
800.033
797.57
795.108
792.646
790.184
787.722
785.26
782.798
780.336
777.874
775.412
772.95
770.488
768.026
765.564
763.103
760.641
758.179
755.718
753.256
750.794
748.333
745.871
743.41
740.948
738.487
736.026
733.564
731.103
728.642
726.181
723.719
721.258
718.797
716.336
713.875
711.414
708.953
706.492
704.031
701.57
699.11
696.649
694.188
691.728
689.267
686.806
684.346
681.885
679.425
676.964
674.504
672.043
669.583
667.123
664.663
662.202
659.742
657.282
654.822
652.362
649.902
647.442
644.982
642.522
640.062
637.602
635.143
632.683
630.223
627.764
625.304
622.845
620.385
617.926
615.466
613.007
610.548
608.088
605.629
603.17
600.711
598.252
595.793
593.334
590.875
588.416
585.957
583.498
581.039
578.581
576.122
573.663
571.205
568.746
566.288
563.829
561.371
558.912
556.454
553.996
551.538
549.08
546.622
544.164
541.706
539.248
536.79
534.332
531.874
529.416
526.959
524.501
522.043
519.586
517.128
514.671
512.214
509.756
507.299
504.842
502.385
499.928
497.471
495.014
492.557
490.1
487.643
485.186
482.73
480.273
477.817
475.36
472.904
470.447
467.991
465.535
463.079
460.622
458.166
455.71
453.254
450.798
448.343
445.887
443.431
440.975
438.52
436.064
433.609
431.153
428.698
426.243
423.788
421.332
418.877
416.422
413.967
411.513
409.058
406.603
404.148
401.694
399.239
396.785
394.33
391.876
389.422
386.968
384.514
382.06
379.606
377.152
374.698
372.244
369.791
367.337
364.884
362.43
359.977
357.524
355.071
352.617
350.164
347.712
345.259
342.806
340.353
337.901
335.448
332.996
330.544
328.091
325.639
323.187
320.735
318.283
315.832
313.38
310.928
308.477
306.025
303.574
301.123
298.672
296.221
293.77
291.319
288.868
286.418
283.967
281.517
279.066
276.616
274.166
271.716
269.266
266.816
264.367
261.917
259.468
257.018
254.569
252.12
249.671
247.222
244.774
242.325
239.876
237.428
234.98
232.532
230.084
227.636
225.188
222.741
220.293
217.846
215.399
212.952
210.505
208.058
205.611
203.165
200.719
198.273
195.827
193.381
190.935
188.49
186.044
183.599
181.154
178.709
176.264
173.82
171.376
168.931
166.487
164.044
161.6
159.157
156.713
154.27
151.827
149.385
146.942
144.5
142.058
139.616
137.175
134.733
132.292
129.852
127.411
124.971
122.53
120.091
117.651
115.212
112.773
110.334
107.895
105.457
103.019
100.582
98.1444
95.7074
93.2708
90.8346
88.3987
85.9632
83.528
81.0932
78.6589
76.2249
73.7914
71.3583
68.9256
66.4935
64.0618
61.6307
59.2
56.77
54.3405
51.9116
49.4834
47.0558
44.629
42.2029
39.7776
37.3531
34.9296
32.507
30.0855
27.6651
25.2459
22.8282
20.4118
17.9973
15.5846
13.1744
10.7666
8.36254
5.9623
3.57163
1.19054
0
0
0
0
0
0
0
0
0
0
0
0
0
0
0
0
0
0
0
0
0
0
0
0
0
0
0
0
0
0
0
0
0
0
0
0
0
0
0
0
0
0
0
0
0
0
0
0
0
0
0
0
0
0
0
0
0
0
0
0
0
0
0
0
0
0
0
0
0
0
0
0
0
0
0
0
0
0
0
0
0
0
0
0
0
0
0
0
0
0
0
0
0
0
0
0
0
0
0
0
0
0
0
0
0
0
0
0
0
0
0
0
0
0
0
0
0
0
0
0
0
0
0
0
0
0
0
0
0
0
0
0
0
0
0
0
0
0
0
0
0
0
0
0
0
0
0
0
0
0
0
0
0
0
0
0
0
0
0
0
0
0
0
0
0
0
0
0
0
0
0
0
0
0
0
0
0
0
0
0
0
0
0
0
0
0
0
0
0
0
0
0
0
0
0
0
0
0
0
0
0
0
0
0
0
0
0
0
0
0
0
0
0
0
0
0
0
0
0
0
0
0
0
0
0
0
0
0
0
0
0
0
0
0
0
0
0
0
0
0
0
0
0
0
0
0
0
0
0
0
0
0
0
0
0
0
0
0
0
0
0
0
0
0
0
0
0
0
0
0
0
0
0
0
0
0
0
0
0
0
0
0
0
0
0
0
0
0
0
0
0
0
0
0
0
0
0
0
0
0
0
0
0
0
0
0
0
0
0
0
0
0
0
0
0
0
0
0
0
0
)
;

boundaryField
{
    inandouthalf11
    {
        type            cyclic;
    }
    inandouthalf12
    {
        type            cyclic;
    }
    inandouthalf21
    {
        type            cyclic;
    }
    inandouthalf22
    {
        type            cyclic;
    }
    inandouthalf31
    {
        type            cyclic;
    }
    inandouthalf32
    {
        type            cyclic;
    }
    inandouthalf41
    {
        type            cyclic;
    }
    inandouthalf42
    {
        type            cyclic;
    }
    top
    {
        type            symmetryPlane;
    }
    walls
    {
        type            slip;
    }
    frontAndBackPlanes
    {
        type            empty;
    }
}


// ************************************************************************* //
