/*--------------------------------*- C++ -*----------------------------------*\
| =========                 |                                                 |
| \\      /  F ield         | OpenFOAM: The Open Source CFD Toolbox           |
|  \\    /   O peration     | Version:  4.0                                   |
|   \\  /    A nd           | Web:      www.OpenFOAM.org                      |
|    \\/     M anipulation  |                                                 |
\*---------------------------------------------------------------------------*/
FoamFile
{
    version     2.0;
    format      ascii;
    class       volScalarField;
    location    "0";
    object      alphas;
}
// * * * * * * * * * * * * * * * * * * * * * * * * * * * * * * * * * * * * * //

dimensions      [0 0 0 0 0 0 0];

internalField   nonuniform List<scalar> 
200
(
1.1
1.1
1.1
1.1
1.1
1.1
1.1
1.1
1.1
1.1
1.1
1.1
1.1
1.1
1.1
1.1
1.1
1.1
1.1
1.1
1.1
1.1
1.1
1.1
1.1
1.1
1.1
1.1
1.1
1.1
1.1
1.1
1.1
1.1
1.1
1.1
1.1
1.1
1.1
1.1
1.1
1.1
1.1
1.1
1.1
1.1
1.1
1.1
1.1
1.1
1.1
1.1
1.1
1.1
1.1
1.1
1.1
1.1
1.1
1.1
1.1
1.1
1.1
1.1
1.1
1.1
1.1
1.1
1.1
1.1
1.1
1.1
1.1
1.1
1.1
1.1
1.1
1.1
1.1
1.1
1.1
1.1
1.1
1.1
1.1
1.1
1.1
1.1
1.1
1.1
1.1
1.1
1.1
1.1
1.1
1.1
1.1
1.1
1.1
1.1
1.1
1.1
1.09996
1.09939
1.09418
1.06175
0.927226
0.61925
0.29635
0.119696
0.048026
0.0204178
0.00932426
0.00456247
0.00237636
0.00130825
0.000756262
0.000456377
0.000286286
0.00018603
0.000124278
8.58532e-05
6.0226e-05
4.38019e-05
3.20481e-05
2.40328e-05
1.81755e-05
1.41052e-05
1.15804e-05
8.44009e-06
7.57535e-06
5.91102e-06
4.39449e-06
3.98839e-06
3.66577e-06
2.40698e-06
2.19751e-06
2.02653e-06
1.88585e-06
1.76923e-06
1.6719e-06
1.59011e-06
1.52097e-06
4.62176e-07
4.11902e-07
3.68689e-07
3.31363e-07
2.98969e-07
2.70732e-07
2.46014e-07
2.24289e-07
2.05123e-07
1.88152e-07
1.73073e-07
1.59631e-07
1.4761e-07
1.36827e-07
1.27128e-07
1.18379e-07
1.10466e-07
1.03291e-07
9.67706e-08
9.08301e-08
8.5406e-08
8.0443e-08
7.58925e-08
7.17118e-08
6.78636e-08
6.4315e-08
6.10368e-08
5.80033e-08
5.51916e-08
5.25812e-08
5.01542e-08
4.78942e-08
4.57868e-08
4.38189e-08
4.19789e-08
4.02562e-08
3.86413e-08
3.71256e-08
3.57015e-08
3.43617e-08
3.31e-08
3.19105e-08
3.07879e-08
2.97274e-08
2.87245e-08
2.77754e-08
2.68761e-08
2.60234e-08
2.52142e-08
2.44455e-08
2.37148e-08
2.30195e-08
2.23576e-08
2.17268e-08
2.11254e-08
2.05514e-08
2.00033e-08
)
;

boundaryField
{
    inlet
    {
        type            cyclic;
    }
    outlet
    {
        type            cyclic;
    }
    top
    {
        type            calculated;
        value           uniform 2.00033e-08;
    }
    bottom
    {
        type            calculated;
        value           uniform 1.1;
    }
    frontAndBackPlanes
    {
        type            empty;
    }
}


// ************************************************************************* //
