/*--------------------------------*- C++ -*----------------------------------*\
| =========                 |                                                 |
| \\      /  F ield         | OpenFOAM: The Open Source CFD Toolbox           |
|  \\    /   O peration     | Version:  4.0                                   |
|   \\  /    A nd           | Web:      www.OpenFOAM.org                      |
|    \\/     M anipulation  |                                                 |
\*---------------------------------------------------------------------------*/
FoamFile
{
    version     2.0;
    format      ascii;
    class       volScalarField;
    location    "0";
    object      alpha.air;
}
// * * * * * * * * * * * * * * * * * * * * * * * * * * * * * * * * * * * * * //

dimensions      [0 0 0 0 0 0 0];

internalField   nonuniform List<scalar> 
200
(
-5.55112e-17
-5.55112e-17
-5.55112e-17
-5.55112e-17
-5.55112e-17
-5.55112e-17
-5.55112e-17
-5.55112e-17
-5.55112e-17
-5.55112e-17
-5.55112e-17
-5.55112e-17
-5.55112e-17
-5.55112e-17
-5.55112e-17
-5.55112e-17
-5.55112e-17
-5.55112e-17
-5.55112e-17
-5.55112e-17
-5.55112e-17
-5.55112e-17
-5.55112e-17
-5.55112e-17
-5.55112e-17
-5.55112e-17
-5.55112e-17
-5.55112e-17
-5.55112e-17
-5.55112e-17
-5.55112e-17
-5.55112e-17
-5.55112e-17
-5.55112e-17
-5.55112e-17
-5.55112e-17
-5.55112e-17
-5.55112e-17
-5.55112e-17
-5.55112e-17
-5.55112e-17
-5.55112e-17
-5.55112e-17
-5.55112e-17
-5.55112e-17
-5.55112e-17
-5.55112e-17
-5.55112e-17
-5.55112e-17
-5.55112e-17
-5.55112e-17
-5.55112e-17
-5.55112e-17
-5.55112e-17
-5.55112e-17
-5.55112e-17
-5.55112e-17
-5.55112e-17
-5.55112e-17
-5.55112e-17
-5.55112e-17
-5.55112e-17
-5.55112e-17
-5.55112e-17
-5.55112e-17
-5.55112e-17
-5.55112e-17
-5.55112e-17
-5.55112e-17
-5.55112e-17
-5.55112e-17
-5.55112e-17
-5.55112e-17
-5.55112e-17
-5.55112e-17
-5.55112e-17
-5.55112e-17
-5.55112e-17
-5.55112e-17
-5.55112e-17
-5.55112e-17
-5.55112e-17
-5.55112e-17
-5.55112e-17
-5.55112e-17
-5.55112e-17
-5.55112e-17
-5.55112e-17
-5.55112e-17
-5.55112e-17
-5.55112e-17
-5.55112e-17
-5.55112e-17
-5.55112e-17
-5.55112e-17
-5.55112e-17
-5.55112e-17
-5.55112e-17
-5.55112e-17
-5.55112e-17
-5.55112e-17
0
0
0
5.55112e-17
-5.55112e-17
0
0
0
0
0
2e-07
-2.6e-07
-4.7e-07
-3.6e-07
-2.45e-07
-2.62e-07
-3.77e-07
-2.86e-07
-3e-08
-2.782e-07
1.468e-07
-2.26e-07
1.981e-07
-4.81e-08
-3.28e-08
-1.7546e-07
-1.0522e-07
4.1962e-07
-4.4009e-07
4.2465e-07
8.898e-08
-3.9449e-07
1.161e-08
3.3423e-07
-4.0698e-07
-1.9751e-07
-2.653e-08
1.14154e-07
2.30766e-07
3.28103e-07
4.09887e-07
4.79028e-07
-4.62176e-07
-4.11902e-07
-3.68689e-07
-3.31363e-07
-2.98969e-07
-2.70732e-07
-2.46014e-07
-2.24289e-07
-2.05123e-07
-1.88152e-07
-1.73073e-07
-1.59631e-07
-1.4761e-07
-1.36827e-07
-1.27128e-07
-1.18379e-07
-1.10466e-07
-1.03291e-07
-9.67706e-08
-9.08301e-08
-8.5406e-08
-8.0443e-08
-7.58925e-08
-7.17118e-08
-6.78636e-08
-6.4315e-08
-6.10368e-08
-5.80033e-08
-5.51916e-08
-5.25812e-08
-5.01542e-08
-4.78942e-08
-4.57868e-08
-4.38189e-08
-4.19789e-08
-4.02562e-08
-3.86413e-08
-3.71256e-08
-3.57015e-08
-3.43617e-08
-3.31e-08
-3.19105e-08
-3.07879e-08
-2.97274e-08
-2.87245e-08
-2.77754e-08
-2.68761e-08
-2.60234e-08
-2.52142e-08
-2.44455e-08
-2.37148e-08
-2.30195e-08
-2.23576e-08
-2.17268e-08
-2.11254e-08
-2.05514e-08
-2.00033e-08
)
;

boundaryField
{
    inlet
    {
        type            cyclic;
    }
    outlet
    {
        type            cyclic;
    }
    top
    {
        type            zeroGradient;
    }
    bottom
    {
        type            zeroGradient;
    }
    frontAndBackPlanes
    {
        type            empty;
    }
}


// ************************************************************************* //
