/*--------------------------------*- C++ -*----------------------------------*\
| =========                 |                                                 |
| \\      /  F ield         | OpenFOAM: The Open Source CFD Toolbox           |
|  \\    /   O peration     | Version:  4.0                                   |
|   \\  /    A nd           | Web:      www.OpenFOAM.org                      |
|    \\/     M anipulation  |                                                 |
\*---------------------------------------------------------------------------*/
FoamFile
{
    version     2.0;
    format      ascii;
    class       volScalarField;
    location    "0";
    object      alpha.sand;
}
// * * * * * * * * * * * * * * * * * * * * * * * * * * * * * * * * * * * * * //

dimensions      [0 0 0 0 0 0 0];

internalField   nonuniform List<scalar> 
200
(
0.55
0.55
0.55
0.55
0.55
0.55
0.55
0.55
0.55
0.55
0.55
0.55
0.55
0.55
0.55
0.55
0.55
0.55
0.55
0.55
0.55
0.55
0.55
0.55
0.55
0.55
0.55
0.55
0.55
0.55
0.55
0.55
0.55
0.55
0.55
0.55
0.55
0.55
0.55
0.55
0.55
0.55
0.55
0.55
0.55
0.55
0.55
0.55
0.55
0.55
0.55
0.55
0.55
0.55
0.55
0.55
0.55
0.55
0.55
0.55
0.55
0.55
0.55
0.55
0.55
0.55
0.55
0.55
0.55
0.55
0.55
0.55
0.55
0.55
0.55
0.55
0.55
0.55
0.55
0.55
0.55
0.55
0.55
0.55
0.55
0.55
0.55
0.55
0.55
0.55
0.55
0.55
0.55
0.55
0.55
0.55
0.55
0.55
0.55
0.55
0.55
0.549999
0.549979
0.549693
0.54709
0.530877
0.463613
0.309625
0.148175
0.059848
0.024013
0.0102088
0.00466226
0.00228147
0.00118836
0.000654245
0.000378262
0.000228377
0.000143286
9.303e-05
6.22782e-05
4.28532e-05
3.0226e-05
2.18019e-05
1.60481e-05
1.20328e-05
9.17546e-06
7.10522e-06
5.58038e-06
4.44009e-06
3.57535e-06
2.91102e-06
2.39449e-06
1.98839e-06
1.66577e-06
1.40698e-06
1.19751e-06
1.02653e-06
8.85846e-07
7.69234e-07
6.71897e-07
5.90113e-07
5.20972e-07
4.62176e-07
4.11902e-07
3.68689e-07
3.31363e-07
2.98969e-07
2.70732e-07
2.46014e-07
2.24289e-07
2.05123e-07
1.88152e-07
1.73073e-07
1.59631e-07
1.4761e-07
1.36827e-07
1.27128e-07
1.18379e-07
1.10466e-07
1.03291e-07
9.67706e-08
9.08301e-08
8.5406e-08
8.0443e-08
7.58925e-08
7.17118e-08
6.78636e-08
6.4315e-08
6.10368e-08
5.80033e-08
5.51916e-08
5.25812e-08
5.01542e-08
4.78942e-08
4.57868e-08
4.38189e-08
4.19789e-08
4.02562e-08
3.86413e-08
3.71256e-08
3.57015e-08
3.43617e-08
3.31e-08
3.19105e-08
3.07879e-08
2.97274e-08
2.87245e-08
2.77754e-08
2.68761e-08
2.60234e-08
2.52142e-08
2.44455e-08
2.37148e-08
2.30195e-08
2.23576e-08
2.17268e-08
2.11254e-08
2.05514e-08
2.00033e-08
)
;

boundaryField
{
    inlet
    {
        type            cyclic;
    }
    outlet
    {
        type            cyclic;
    }
    top
    {
        type            zeroGradient;
    }
    bottom
    {
        type            zeroGradient;
    }
    frontAndBackPlanes
    {
        type            empty;
    }
}


// ************************************************************************* //
