/*--------------------------------*- C++ -*----------------------------------*\
| =========                 |                                                 |
| \\      /  F ield         | OpenFOAM: The Open Source CFD Toolbox           |
|  \\    /   O peration     | Version:  4.0                                   |
|   \\  /    A nd           | Web:      www.OpenFOAM.org                      |
|    \\/     M anipulation  |                                                 |
\*---------------------------------------------------------------------------*/
FoamFile
{
    version     2.0;
    format      ascii;
    class       volScalarField;
    location    "197.8";
    object      epsilon;
}
// * * * * * * * * * * * * * * * * * * * * * * * * * * * * * * * * * * * * * //

dimensions      [0 2 -3 0 0 0 0];

internalField   nonuniform List<scalar> 
400
(
0.290876
0.130782
0.0840324
0.0616234
0.048583
0.0400797
0.0341032
0.029674
0.0262601
0.023548
0.0213409
0.0195095
0.017965
0.0166448
0.015503
0.0145056
0.0136267
0.0128463
0.0121487
0.0115212
0.0109537
0.0104379
0.00996714
0.00953561
0.0091386
0.00877209
0.00843269
0.00811747
0.00782391
0.00754985
0.00729338
0.00705285
0.00682681
0.00661397
0.00641321
0.00622352
0.00604401
0.00587386
0.00571235
0.00555884
0.00541274
0.00527352
0.00514071
0.00501386
0.00489259
0.00477653
0.00466535
0.00455874
0.00445642
0.00435815
0.00426368
0.00417279
0.00408528
0.00400097
0.00391968
0.00384125
0.00376554
0.00369239
0.00362168
0.00355329
0.00348711
0.00342302
0.00336094
0.00330077
0.00324242
0.0031858
0.00313085
0.00307749
0.00302565
0.00297526
0.00292627
0.00287862
0.00283225
0.00278711
0.00274315
0.00270032
0.00265859
0.00261791
0.00257825
0.00253956
0.0025018
0.00246495
0.00242897
0.00239384
0.00235951
0.00232597
0.00229319
0.00226113
0.00222979
0.00219913
0.00216913
0.00213978
0.00211104
0.0020829
0.00205534
0.00202835
0.0020019
0.00197599
0.00195059
0.00192568
0.00190126
0.00187732
0.00185383
0.00183078
0.00180816
0.00178597
0.00176418
0.00174279
0.00172178
0.00170115
0.00168089
0.00166098
0.00164141
0.00162219
0.00160329
0.00158472
0.00156645
0.00154849
0.00153083
0.00151345
0.00149636
0.00147955
0.001463
0.00144672
0.00143069
0.00141491
0.00139938
0.00138408
0.00136902
0.00135419
0.00133958
0.00132519
0.00131101
0.00129705
0.00128328
0.00126972
0.00125635
0.00124317
0.00123018
0.00121738
0.00120475
0.0011923
0.00118002
0.00116791
0.00115596
0.00114418
0.00113255
0.00112108
0.00110976
0.00109859
0.00108757
0.00107668
0.00106594
0.00105534
0.00104488
0.00103454
0.00102434
0.00101426
0.00100431
0.000994486
0.00098478
0.000975192
0.000965721
0.000956364
0.00094712
0.000937987
0.000928962
0.000920044
0.000911231
0.000902521
0.000893913
0.000885404
0.000876992
0.000868678
0.000860457
0.000852329
0.000844293
0.000836346
0.000828488
0.000820717
0.000813031
0.00080543
0.000797911
0.000790474
0.000783117
0.000775838
0.000768638
0.000761514
0.000754466
0.000747491
0.00074059
0.000733761
0.000727002
0.000720312
0.000713692
0.00070714
0.000700654
0.000694234
0.000687879
0.000681588
0.00067536
0.000669194
0.000663089
0.000657044
0.000651059
0.000645132
0.000639264
0.000633452
0.000627697
0.000621997
0.000616351
0.00061076
0.000605222
0.000599736
0.000594303
0.000588921
0.00058359
0.000578309
0.000573078
0.000567895
0.000562759
0.000557671
0.00055263
0.000547635
0.000542686
0.000537781
0.000532921
0.000528105
0.000523333
0.000518603
0.000513916
0.000509271
0.000504667
0.000500105
0.000495583
0.000491101
0.000486659
0.000482256
0.000477892
0.000473566
0.000469279
0.000465028
0.000460815
0.000456638
0.000452498
0.000448393
0.000444325
0.000440291
0.000436292
0.000432328
0.000428398
0.000424502
0.000420639
0.000416809
0.000413013
0.000409248
0.000405516
0.000401816
0.000398148
0.000394511
0.000390905
0.00038733
0.000383785
0.000380271
0.000376786
0.000373331
0.000369905
0.000366509
0.000363142
0.000359803
0.000356493
0.000353211
0.000349957
0.000346731
0.000343533
0.000340362
0.000337218
0.000334101
0.000331011
0.000327948
0.000324911
0.0003219
0.000318916
0.000315957
0.000313024
0.000310117
0.000307235
0.000304378
0.000301547
0.000298741
0.00029596
0.000293204
0.000290472
0.000287766
0.000285083
0.000282425
0.000279791
0.000277181
0.000274595
0.000272033
0.000269495
0.000266981
0.000264491
0.000262024
0.00025958
0.000257161
0.000254765
0.000252392
0.000250043
0.000247717
0.000245414
0.000243135
0.000240879
0.000238647
0.000236437
0.000234251
0.000232089
0.00022995
0.000227834
0.000225741
0.000223672
0.000221627
0.000219605
0.000217607
0.000215633
0.000213682
0.000211756
0.000209854
0.000207976
0.000206123
0.000204294
0.00020249
0.000200711
0.000198957
0.000197229
0.000195526
0.00019385
0.0001922
0.000190576
0.00018898
0.000187411
0.000185869
0.000184356
0.000182871
0.000181416
0.00017999
0.000178595
0.00017723
0.000175898
0.000174598
0.000173331
0.000172099
0.000170901
0.000169741
0.000168617
0.000167533
0.000166489
0.000165486
0.000164527
0.000163613
0.000162746
0.000161928
0.000161163
0.000160451
0.000159798
0.000159205
0.000158676
0.000158215
0.000157828
0.000157519
0.000157295
0.000157161
0.000157125
0.000157196
0.000157384
0.000157701
0.000158159
0.000158774
0.000159564
0.00016055
0.000161759
0.00016322
0.000164973
0.000167062
0.000169546
0.000172497
0.00017601
0.000180204
0.000185243
0.000191348
0.000198835
0.000208158
0.000220018
0.000235542
0.000256692
0.000287236
0.000335547
0.000424781
0.000645509
0.00155161
)
;

boundaryField
{
    inlet
    {
        type            cyclic;
    }
    outlet
    {
        type            cyclic;
    }
    top
    {
        type            fixedValue;
        value           uniform 0.01;
    }
    bottom
    {
        Cmu             0.09;
        kappa           0.41;
        E               9.8;
        type            epsilonWallFunction;
        value           uniform 0.290876;
    }
    frontAndBackPlanes
    {
        type            empty;
    }
}


// ************************************************************************* //
