/*--------------------------------*- C++ -*----------------------------------*\
| =========                 |                                                 |
| \\      /  F ield         | OpenFOAM: The Open Source CFD Toolbox           |
|  \\    /   O peration     | Version:  4.0                                   |
|   \\  /    A nd           | Web:      www.OpenFOAM.org                      |
|    \\/     M anipulation  |                                                 |
\*---------------------------------------------------------------------------*/
FoamFile
{
    version     2.0;
    format      ascii;
    class       volScalarField;
    location    "197.8";
    object      k;
}
// * * * * * * * * * * * * * * * * * * * * * * * * * * * * * * * * * * * * * //

dimensions      [0 2 -2 0 0 0 0];

internalField   nonuniform List<scalar> 
400
(
0.00228
0.00233346
0.00245448
0.0025163
0.00255089
0.00257135
0.00258357
0.00259058
0.00259407
0.00259509
0.00259431
0.00259218
0.00258902
0.00258504
0.00258043
0.00257529
0.00256974
0.00256385
0.00255767
0.00255126
0.00254465
0.00253787
0.00253096
0.00252393
0.00251679
0.00250958
0.00250229
0.00249494
0.00248755
0.00248011
0.00247263
0.00246513
0.0024576
0.00245005
0.00244249
0.00243491
0.00242733
0.00241974
0.00241215
0.00240456
0.00239697
0.00238938
0.00238179
0.00237421
0.00236664
0.00235907
0.00235152
0.00234397
0.00233643
0.00232891
0.0023214
0.00231389
0.00230641
0.00229893
0.00229147
0.00228402
0.00227658
0.00226916
0.00226176
0.00225437
0.00224699
0.00223963
0.00223228
0.00222495
0.00221764
0.00221034
0.00220305
0.00219578
0.00218853
0.00218129
0.00217407
0.00216686
0.00215967
0.0021525
0.00214534
0.00213819
0.00213106
0.00212395
0.00211685
0.00210977
0.0021027
0.00209565
0.00208862
0.0020816
0.00207459
0.0020676
0.00206062
0.00205366
0.00204672
0.00203978
0.00203287
0.00202597
0.00201908
0.0020122
0.00200535
0.0019985
0.00199167
0.00198485
0.00197805
0.00197126
0.00196449
0.00195773
0.00195098
0.00194425
0.00193753
0.00193082
0.00192413
0.00191745
0.00191078
0.00190413
0.00189749
0.00189086
0.00188424
0.00187764
0.00187105
0.00186447
0.00185791
0.00185135
0.00184481
0.00183828
0.00183177
0.00182526
0.00181877
0.00181229
0.00180582
0.00179936
0.00179292
0.00178649
0.00178006
0.00177365
0.00176725
0.00176086
0.00175449
0.00174812
0.00174177
0.00173542
0.00172909
0.00172277
0.00171645
0.00171015
0.00170386
0.00169758
0.00169131
0.00168505
0.0016788
0.00167256
0.00166634
0.00166012
0.00165391
0.00164771
0.00164152
0.00163534
0.00162917
0.00162301
0.00161686
0.00161071
0.00160458
0.00159846
0.00159234
0.00158624
0.00158014
0.00157406
0.00156798
0.00156191
0.00155585
0.0015498
0.00154376
0.00153773
0.0015317
0.00152568
0.00151968
0.00151368
0.00150769
0.00150171
0.00149573
0.00148977
0.00148381
0.00147786
0.00147192
0.00146598
0.00146006
0.00145414
0.00144823
0.00144233
0.00143643
0.00143055
0.00142467
0.0014188
0.00141293
0.00140708
0.00140123
0.00139539
0.00138955
0.00138372
0.0013779
0.00137209
0.00136629
0.00136049
0.0013547
0.00134891
0.00134314
0.00133737
0.0013316
0.00132585
0.0013201
0.00131435
0.00130862
0.00130289
0.00129717
0.00129145
0.00128574
0.00128004
0.00127434
0.00126865
0.00126297
0.00125729
0.00125162
0.00124596
0.0012403
0.00123465
0.001229
0.00122337
0.00121773
0.00121211
0.00120649
0.00120087
0.00119526
0.00118966
0.00118407
0.00117848
0.00117289
0.00116731
0.00116174
0.00115617
0.00115061
0.00114506
0.00113951
0.00113397
0.00112843
0.0011229
0.00111737
0.00111185
0.00110634
0.00110083
0.00109533
0.00108983
0.00108434
0.00107885
0.00107337
0.00106789
0.00106242
0.00105696
0.0010515
0.00104605
0.0010406
0.00103515
0.00102972
0.00102428
0.00101886
0.00101344
0.00100802
0.00100261
0.000997203
0.000991802
0.000986406
0.000981016
0.000975631
0.00097025
0.000964875
0.000959505
0.00095414
0.00094878
0.000943424
0.000938074
0.000932728
0.000927388
0.000922052
0.000916721
0.000911395
0.000906073
0.000900756
0.000895444
0.000890137
0.000884834
0.000879535
0.000874241
0.000868952
0.000863667
0.000858386
0.000853109
0.000847837
0.00084257
0.000837306
0.000832047
0.000826792
0.00082154
0.000816293
0.000811049
0.000805809
0.000800573
0.000795341
0.000790112
0.000784887
0.000779665
0.000774446
0.000769231
0.000764019
0.00075881
0.000753603
0.0007484
0.000743199
0.000738001
0.000732806
0.000727612
0.000722421
0.000717232
0.000712044
0.000706859
0.000701674
0.000696491
0.000691309
0.000686128
0.000680948
0.000675768
0.000670589
0.000665409
0.00066023
0.00065505
0.000649869
0.000644686
0.000639503
0.000634317
0.000629129
0.000623939
0.000618746
0.000613549
0.000608349
0.000603145
0.000597935
0.000592721
0.0005875
0.000582273
0.000577039
0.000571798
0.000566547
0.000561288
0.000556018
0.000550738
0.000545446
0.000540142
0.000534823
0.00052949
0.000524141
0.000518775
0.000513391
0.000507987
0.000502561
0.000497113
0.000491639
0.00048614
0.000480612
0.000475053
0.000469461
0.000463833
0.000458167
0.00045246
0.000446708
0.000440907
0.000435055
0.000429146
0.000423176
0.00041714
0.000411031
0.000404845
0.000398572
0.000392206
0.000385738
0.000379156
0.00037245
0.000365607
0.00035861
0.000351443
0.000344084
0.00033651
0.000328691
0.000320593
0.000312172
0.000303377
0.00029414
0.000284376
0.000273974
0.00026278
0.000250581
0.00023706
0.000221726
0.000203744
0.000181533
0.000151577
0.000104491
2.60695e-05
)
;

boundaryField
{
    inlet
    {
        type            cyclic;
    }
    outlet
    {
        type            cyclic;
    }
    top
    {
        type            zeroGradient;
    }
    bottom
    {
        type            fixedValue;
        value           uniform 1e-06;
    }
    frontAndBackPlanes
    {
        type            empty;
    }
}


// ************************************************************************* //
