/*--------------------------------*- C++ -*----------------------------------*\
| =========                 |                                                 |
| \\      /  F ield         | OpenFOAM: The Open Source CFD Toolbox           |
|  \\    /   O peration     | Version:  4.0                                   |
|   \\  /    A nd           | Web:      www.OpenFOAM.org                      |
|    \\/     M anipulation  |                                                 |
\*---------------------------------------------------------------------------*/
FoamFile
{
    version     2.0;
    format      ascii;
    class       volScalarField;
    location    "197.8";
    object      nut;
}
// * * * * * * * * * * * * * * * * * * * * * * * * * * * * * * * * * * * * * //

dimensions      [0 2 -1 0 0 0 0];

internalField   nonuniform List<scalar> 
400
(
1.60844e-06
3.74709e-06
6.4523e-06
9.24742e-06
1.20543e-05
1.48471e-05
1.76153e-05
2.03544e-05
2.30626e-05
2.57391e-05
2.8384e-05
3.09976e-05
3.35803e-05
3.61327e-05
3.86555e-05
4.11492e-05
4.36145e-05
4.6052e-05
4.84622e-05
5.08458e-05
5.32032e-05
5.55351e-05
5.78418e-05
6.01239e-05
6.23819e-05
6.46161e-05
6.6827e-05
6.9015e-05
7.11805e-05
7.33238e-05
7.54454e-05
7.75455e-05
7.96245e-05
8.16827e-05
8.37205e-05
8.5738e-05
8.77355e-05
8.97134e-05
9.1672e-05
9.36115e-05
9.55321e-05
9.74342e-05
9.93179e-05
0.000101183
0.000103031
0.000104861
0.000106673
0.000108468
0.000110246
0.000112007
0.000113751
0.000115479
0.00011719
0.000118885
0.000120564
0.000122227
0.000123875
0.000125507
0.000127123
0.000128724
0.000130311
0.000131882
0.000133438
0.00013498
0.000136507
0.000138019
0.000139518
0.000141002
0.000142472
0.000143928
0.00014537
0.000146798
0.000148213
0.000149615
0.000151003
0.000152377
0.000153739
0.000155087
0.000156423
0.000157745
0.000159054
0.000160351
0.000161636
0.000162907
0.000164167
0.000165413
0.000166648
0.00016787
0.00016908
0.000170279
0.000171465
0.000172639
0.000173801
0.000174952
0.000176091
0.000177218
0.000178334
0.000179438
0.000180531
0.000181613
0.000182683
0.000183742
0.00018479
0.000185827
0.000186853
0.000187868
0.000188872
0.000189865
0.000190847
0.000191819
0.000192779
0.00019373
0.000194669
0.000195598
0.000196517
0.000197425
0.000198323
0.000199211
0.000200088
0.000200955
0.000201812
0.000202659
0.000203495
0.000204322
0.000205139
0.000205946
0.000206742
0.000207529
0.000208307
0.000209074
0.000209831
0.000210579
0.000211317
0.000212046
0.000212765
0.000213474
0.000214174
0.000214864
0.000215544
0.000216216
0.000216878
0.00021753
0.000218173
0.000218807
0.000219432
0.000220047
0.000220653
0.00022125
0.000221838
0.000222417
0.000222987
0.000223547
0.000224099
0.000224641
0.000225175
0.0002257
0.000226216
0.000226722
0.00022722
0.00022771
0.00022819
0.000228662
0.000229125
0.000229579
0.000230024
0.000230461
0.000230889
0.000231308
0.000231719
0.000232121
0.000232514
0.000232899
0.000233276
0.000233643
0.000234002
0.000234353
0.000234695
0.000235029
0.000235355
0.000235671
0.00023598
0.00023628
0.000236572
0.000236855
0.00023713
0.000237397
0.000237655
0.000237906
0.000238147
0.000238381
0.000238606
0.000238823
0.000239032
0.000239233
0.000239425
0.000239609
0.000239785
0.000239953
0.000240113
0.000240264
0.000240407
0.000240542
0.000240669
0.000240788
0.000240898
0.000241001
0.000241095
0.000241181
0.000241259
0.000241329
0.000241391
0.000241445
0.00024149
0.000241528
0.000241557
0.000241578
0.000241591
0.000241596
0.000241592
0.000241581
0.000241561
0.000241533
0.000241497
0.000241453
0.000241401
0.000241341
0.000241272
0.000241196
0.000241111
0.000241018
0.000240916
0.000240807
0.000240689
0.000240563
0.000240428
0.000240285
0.000240134
0.000239975
0.000239807
0.000239631
0.000239446
0.000239253
0.000239051
0.000238841
0.000238623
0.000238396
0.00023816
0.000237916
0.000237663
0.000237402
0.000237132
0.000236853
0.000236565
0.000236269
0.000235963
0.000235649
0.000235326
0.000234994
0.000234652
0.000234302
0.000233942
0.000233574
0.000233196
0.000232809
0.000232412
0.000232007
0.000231591
0.000231167
0.000230732
0.000230288
0.000229835
0.000229371
0.000228898
0.000228415
0.000227921
0.000227418
0.000226904
0.000226381
0.000225846
0.000225302
0.000224747
0.000224181
0.000223604
0.000223017
0.000222419
0.000221809
0.000221189
0.000220557
0.000219914
0.000219259
0.000218592
0.000217914
0.000217223
0.000216521
0.000215806
0.000215079
0.000214339
0.000213586
0.000212821
0.000212042
0.000211251
0.000210445
0.000209627
0.000208794
0.000207947
0.000207086
0.000206211
0.000205321
0.000204416
0.000203496
0.00020256
0.000201609
0.000200642
0.000199658
0.000198658
0.000197642
0.000196609
0.000195558
0.000194489
0.000193403
0.000192298
0.000191175
0.000190033
0.000188871
0.00018769
0.000186488
0.000185266
0.000184024
0.000182759
0.000181473
0.000180165
0.000178835
0.000177481
0.000176103
0.000174701
0.000173275
0.000171824
0.000170346
0.000168843
0.000167312
0.000165754
0.000164168
0.000162554
0.00016091
0.000159235
0.000157531
0.000155795
0.000154026
0.000152225
0.00015039
0.000148521
0.000146616
0.000144675
0.000142697
0.000140681
0.000138627
0.000136532
0.000134397
0.000132221
0.000130001
0.000127738
0.00012543
0.000123077
0.000120676
0.000118228
0.00011573
0.000113182
0.000110583
0.000107931
0.000105225
0.000102464
9.96465e-05
9.67715e-05
9.38377e-05
9.08438e-05
8.77885e-05
8.46706e-05
8.14892e-05
7.82429e-05
7.49308e-05
7.15517e-05
6.81048e-05
6.45892e-05
6.10044e-05
5.73497e-05
5.36249e-05
4.98304e-05
4.59666e-05
4.20348e-05
3.80369e-05
3.39757e-05
2.98562e-05
2.5685e-05
2.14729e-05
1.72371e-05
1.30069e-05
8.83896e-06
4.86795e-06
1.52229e-06
3.94207e-08
)
;

boundaryField
{
    inlet
    {
        type            cyclic;
    }
    outlet
    {
        type            cyclic;
    }
    top
    {
        type            zeroGradient;
    }
    bottom
    {
        type            nutkWallFunction;
        Cmu             0.09;
        kappa           0.41;
        E               9.8;
        value           uniform 0;
    }
    frontAndBackPlanes
    {
        type            empty;
    }
}


// ************************************************************************* //
