/*--------------------------------*- C++ -*----------------------------------*\
| =========                 |                                                 |
| \\      /  F ield         | OpenFOAM: The Open Source CFD Toolbox           |
|  \\    /   O peration     | Version:  4.0                                   |
|   \\  /    A nd           | Web:      www.OpenFOAM.org                      |
|    \\/     M anipulation  |                                                 |
\*---------------------------------------------------------------------------*/
FoamFile
{
    version     2.0;
    format      ascii;
    class       volScalarField;
    location    "197.8";
    object      p_rgh;
}
// * * * * * * * * * * * * * * * * * * * * * * * * * * * * * * * * * * * * * //

dimensions      [1 -1 -2 0 0 0 0];

internalField   nonuniform List<scalar> 
400
(
6.03181e-10
6.03181e-10
6.03181e-10
6.03181e-10
6.03181e-10
6.03181e-10
6.03181e-10
6.03181e-10
6.03181e-10
6.03181e-10
6.03181e-10
6.03181e-10
6.03181e-10
6.03181e-10
6.03181e-10
6.03181e-10
6.03181e-10
6.03181e-10
6.03181e-10
6.03181e-10
6.03181e-10
6.03136e-10
6.03047e-10
6.02956e-10
6.02817e-10
6.0263e-10
6.02439e-10
6.02246e-10
6.021e-10
6.01951e-10
6.018e-10
6.01597e-10
6.01391e-10
6.01182e-10
6.00971e-10
6.00758e-10
6.00542e-10
6.00323e-10
6.00102e-10
5.99879e-10
5.99653e-10
5.99482e-10
5.9931e-10
5.99135e-10
5.98959e-10
5.98781e-10
5.98602e-10
5.9842e-10
5.98238e-10
5.98053e-10
5.97867e-10
5.9768e-10
5.9749e-10
5.97299e-10
5.97043e-10
5.96785e-10
5.96589e-10
5.96392e-10
5.96194e-10
5.95994e-10
5.95793e-10
5.9559e-10
5.95317e-10
5.95043e-10
5.94767e-10
5.94489e-10
5.94209e-10
5.93857e-10
5.93503e-10
5.93147e-10
5.92788e-10
5.92427e-10
5.92064e-10
5.91698e-10
5.91331e-10
5.90961e-10
5.9059e-10
5.90291e-10
5.8999e-10
5.89612e-10
5.89233e-10
5.88851e-10
5.88467e-10
5.88081e-10
5.87538e-10
5.87071e-10
5.86601e-10
5.86129e-10
5.85655e-10
5.85099e-10
5.8454e-10
5.83979e-10
5.83335e-10
5.82688e-10
5.82039e-10
5.81468e-10
5.80894e-10
5.80319e-10
5.79906e-10
5.79491e-10
5.79075e-10
5.78657e-10
5.78238e-10
5.77817e-10
5.77394e-10
5.76885e-10
5.76374e-10
5.75862e-10
5.75176e-10
5.74487e-10
5.7371e-10
5.7293e-10
5.72148e-10
5.71363e-10
5.70663e-10
5.6996e-10
5.69256e-10
5.68549e-10
5.67752e-10
5.66952e-10
5.6615e-10
5.65345e-10
5.64539e-10
5.63729e-10
5.63008e-10
5.62375e-10
5.61741e-10
5.61195e-10
5.6074e-10
5.60283e-10
5.59916e-10
5.59457e-10
5.59089e-10
5.5872e-10
5.58257e-10
5.57794e-10
5.57236e-10
5.56677e-10
5.56117e-10
5.55462e-10
5.54805e-10
5.54241e-10
5.53676e-10
5.5311e-10
5.52448e-10
5.51785e-10
5.5112e-10
5.50359e-10
5.49692e-10
5.49024e-10
5.48354e-10
5.47779e-10
5.47203e-10
5.46626e-10
5.46048e-10
5.45469e-10
5.44889e-10
5.44211e-10
5.43532e-10
5.42852e-10
5.42171e-10
5.41489e-10
5.40806e-10
5.40025e-10
5.39242e-10
5.38458e-10
5.37772e-10
5.37084e-10
5.36395e-10
5.35706e-10
5.35016e-10
5.34226e-10
5.33435e-10
5.32445e-10
5.31455e-10
5.30463e-10
5.29271e-10
5.28079e-10
5.26785e-10
5.25491e-10
5.24195e-10
5.22798e-10
5.214e-10
5.2e-10
5.185e-10
5.16998e-10
5.15394e-10
5.1379e-10
5.12184e-10
5.10376e-10
5.08567e-10
5.06757e-10
5.04946e-10
5.03133e-10
5.01118e-10
4.99102e-10
4.97084e-10
4.95066e-10
4.93046e-10
4.90824e-10
4.886e-10
4.86376e-10
4.8415e-10
4.81924e-10
4.79697e-10
4.7747e-10
4.75241e-10
4.73013e-10
4.70783e-10
4.68553e-10
4.66323e-10
4.64092e-10
4.61861e-10
4.5963e-10
4.57398e-10
4.55166e-10
4.52934e-10
4.50702e-10
4.4847e-10
4.46238e-10
4.44007e-10
4.41775e-10
4.39341e-10
4.36907e-10
4.34473e-10
4.3204e-10
4.29607e-10
4.27175e-10
4.24743e-10
4.22312e-10
4.19882e-10
4.17452e-10
4.15024e-10
4.12596e-10
4.10169e-10
4.07743e-10
4.05319e-10
4.02895e-10
4.00271e-10
3.97648e-10
3.95027e-10
3.92407e-10
3.89789e-10
3.87172e-10
3.84557e-10
3.81944e-10
3.79332e-10
3.76723e-10
3.74115e-10
3.7131e-10
3.68506e-10
3.65705e-10
3.62906e-10
3.6031e-10
3.57715e-10
3.55323e-10
3.52933e-10
3.50546e-10
3.48161e-10
3.45579e-10
3.43001e-10
3.40426e-10
3.37853e-10
3.35284e-10
3.32521e-10
3.2976e-10
3.27004e-10
3.24251e-10
3.21501e-10
3.18756e-10
3.15818e-10
3.12885e-10
3.09956e-10
3.07031e-10
3.04111e-10
3.01195e-10
2.98284e-10
2.95378e-10
2.92477e-10
2.89774e-10
2.86882e-10
2.83996e-10
2.81115e-10
2.7824e-10
2.7537e-10
2.72314e-10
2.69265e-10
2.66222e-10
2.62995e-10
2.59775e-10
2.56372e-10
2.52789e-10
2.49213e-10
2.45646e-10
2.42087e-10
2.38536e-10
2.34994e-10
2.31461e-10
2.27936e-10
2.2442e-10
2.20914e-10
2.17417e-10
2.14112e-10
2.10817e-10
2.07531e-10
2.04255e-10
2.0117e-10
1.98094e-10
1.95027e-10
1.9197e-10
1.89101e-10
1.86242e-10
1.83214e-10
1.80197e-10
1.77189e-10
1.74193e-10
1.71207e-10
1.68056e-10
1.64918e-10
1.61791e-10
1.58676e-10
1.55574e-10
1.52656e-10
1.4975e-10
1.46856e-10
1.43805e-10
1.40936e-10
1.3808e-10
1.35237e-10
1.32407e-10
1.29591e-10
1.26789e-10
1.24164e-10
1.21716e-10
1.19444e-10
1.17022e-10
1.14613e-10
1.12217e-10
1.09836e-10
1.07468e-10
1.05115e-10
1.02776e-10
1.00451e-10
9.7988e-11
9.5541e-11
9.31105e-11
9.0697e-11
8.84504e-11
8.60715e-11
8.37104e-11
8.13675e-11
7.90432e-11
7.67377e-11
7.45943e-11
7.23276e-11
7.00809e-11
6.78545e-11
6.56489e-11
6.36009e-11
6.15732e-11
5.96999e-11
5.78463e-11
5.58816e-11
5.39388e-11
5.18903e-11
4.9866e-11
4.78665e-11
4.58922e-11
4.39436e-11
4.21415e-11
4.03646e-11
3.86132e-11
3.68881e-11
3.53029e-11
3.36317e-11
3.18787e-11
3.0156e-11
2.84642e-11
2.68039e-11
2.51757e-11
2.35804e-11
2.20185e-11
2.04908e-11
1.89979e-11
1.76315e-11
1.62991e-11
1.50013e-11
1.37386e-11
1.25118e-11
1.13215e-11
1.00912e-11
8.90106e-12
7.75155e-12
6.64311e-12
5.50933e-12
4.41956e-12
3.37332e-12
2.36884e-12
1.40058e-12
4.58575e-13
)
;

boundaryField
{
    inlet
    {
        type            cyclic;
    }
    outlet
    {
        type            cyclic;
    }
    top
    {
        type            fixedValue;
        value           uniform 0;
    }
    bottom
    {
        type            fixedFluxPressure;
        gradient        uniform 0;
        value           uniform 6.03181e-10;
    }
    frontAndBackPlanes
    {
        type            empty;
    }
}


// ************************************************************************* //
