/*--------------------------------*- C++ -*----------------------------------*\
| =========                 |                                                 |
| \\      /  F ield         | OpenFOAM: The Open Source CFD Toolbox           |
|  \\    /   O peration     | Version:  4.0                                   |
|   \\  /    A nd           | Web:      www.OpenFOAM.org                      |
|    \\/     M anipulation  |                                                 |
\*---------------------------------------------------------------------------*/
FoamFile
{
    version     2.0;
    format      ascii;
    class       volVectorField;
    location    "197.8";
    object      U;
}
// * * * * * * * * * * * * * * * * * * * * * * * * * * * * * * * * * * * * * //

dimensions      [0 1 -1 0 0 0 0];

internalField   nonuniform List<vector> 
400
(
(0.132994 -1.58106e-18 0)
(0.20508 -2.45933e-18 0)
(0.248402 -3.39387e-18 0)
(0.278164 -5.76278e-18 0)
(0.300698 -1.06962e-17 0)
(0.318808 -1.72945e-17 0)
(0.333946 -2.72704e-17 0)
(0.346956 -4.33815e-17 0)
(0.358369 -4.56657e-17 0)
(0.368539 -5.08258e-17 0)
(0.377715 -7.01723e-17 0)
(0.386078 -8.44768e-17 0)
(0.393763 -9.49777e-17 0)
(0.400875 -1.02962e-16 0)
(0.407496 -1.09041e-16 0)
(0.41369 -1.13896e-16 0)
(0.419512 -1.19236e-16 0)
(0.425004 -1.28405e-16 0)
(0.430204 -1.31634e-16 0)
(0.435142 -1.37571e-16 0)
(0.439843 -1.35709e-16 0)
(0.444331 -1.22342e-16 0)
(0.448625 -1.32584e-16 0)
(0.452741 -1.41998e-16 0)
(0.456694 -1.27358e-16 0)
(0.460497 -1.25467e-16 0)
(0.464162 -1.45617e-16 0)
(0.467698 -1.76998e-16 0)
(0.471114 -2.09213e-16 0)
(0.47442 -2.33358e-16 0)
(0.477621 -2.47285e-16 0)
(0.480725 -2.54508e-16 0)
(0.483738 -2.60934e-16 0)
(0.486665 -2.6372e-16 0)
(0.489511 -2.82188e-16 0)
(0.49228 -3.14717e-16 0)
(0.494977 -3.38258e-16 0)
(0.497606 -3.59664e-16 0)
(0.500171 -3.7245e-16 0)
(0.502673 -3.79231e-16 0)
(0.505117 -4.01547e-16 0)
(0.507505 -4.26656e-16 0)
(0.50984 -4.46119e-16 0)
(0.512124 -4.70464e-16 0)
(0.51436 -4.9211e-16 0)
(0.51655 -5.14502e-16 0)
(0.518694 -5.38448e-16 0)
(0.520797 -5.64927e-16 0)
(0.522858 -5.83863e-16 0)
(0.524881 -6.01499e-16 0)
(0.526865 -6.29946e-16 0)
(0.528813 -6.56296e-16 0)
(0.530727 -6.74785e-16 0)
(0.532607 -6.64355e-16 0)
(0.534454 -6.51335e-16 0)
(0.53627 -6.7438e-16 0)
(0.538056 -6.94282e-16 0)
(0.539812 -6.87877e-16 0)
(0.541541 -6.70414e-16 0)
(0.543242 -6.52788e-16 0)
(0.544917 -6.35043e-16 0)
(0.546566 -6.01284e-16 0)
(0.548191 -5.847e-16 0)
(0.549792 -5.89657e-16 0)
(0.551369 -6.01334e-16 0)
(0.552924 -6.0554e-16 0)
(0.554456 -5.79953e-16 0)
(0.555968 -5.63056e-16 0)
(0.557459 -5.68933e-16 0)
(0.558929 -5.88659e-16 0)
(0.560381 -6.10242e-16 0)
(0.561813 -6.16734e-16 0)
(0.563226 -6.09682e-16 0)
(0.564622 -5.86636e-16 0)
(0.566 -5.65444e-16 0)
(0.567361 -5.6088e-16 0)
(0.568705 -5.81834e-16 0)
(0.570033 -6.04397e-16 0)
(0.571345 -5.88543e-16 0)
(0.572642 -5.58373e-16 0)
(0.573924 -5.38845e-16 0)
(0.57519 -5.23997e-16 0)
(0.576443 -5.03909e-16 0)
(0.577681 -4.58873e-16 0)
(0.578906 -4.40233e-16 0)
(0.580117 -4.64349e-16 0)
(0.581315 -4.76573e-16 0)
(0.5825 -4.72722e-16 0)
(0.583672 -4.63014e-16 0)
(0.584833 -4.63841e-16 0)
(0.585981 -4.87797e-16 0)
(0.587117 -4.96656e-16 0)
(0.588242 -4.88505e-16 0)
(0.589355 -4.84512e-16 0)
(0.590458 -4.76137e-16 0)
(0.591549 -4.59524e-16 0)
(0.59263 -4.41189e-16 0)
(0.593701 -4.63416e-16 0)
(0.594761 -4.84953e-16 0)
(0.595811 -4.68471e-16 0)
(0.596851 -4.4206e-16 0)
(0.597882 -4.26276e-16 0)
(0.598903 -4.23091e-16 0)
(0.599915 -4.11336e-16 0)
(0.600917 -3.85375e-16 0)
(0.601911 -3.65216e-16 0)
(0.602896 -3.60133e-16 0)
(0.603872 -3.24653e-16 0)
(0.60484 -2.70629e-16 0)
(0.605799 -2.3712e-16 0)
(0.60675 -2.12651e-16 0)
(0.607693 -1.93615e-16 0)
(0.608628 -1.82195e-16 0)
(0.609555 -1.74707e-16 0)
(0.610475 -1.62547e-16 0)
(0.611386 -1.43036e-16 0)
(0.612291 -1.21464e-16 0)
(0.613188 -1.03302e-16 0)
(0.614078 -8.85298e-17 0)
(0.614961 -7.60595e-17 0)
(0.615837 -6.79459e-17 0)
(0.616706 -4.56956e-17 0)
(0.617568 -2.17481e-17 0)
(0.618424 -2.23738e-17 0)
(0.619273 -3.09977e-17 0)
(0.620115 -3.10274e-17 0)
(0.620951 -3.15271e-17 0)
(0.621781 -3.14123e-17 0)
(0.622605 -1.88951e-17 0)
(0.623422 2.09451e-18 0)
(0.624234 4.12954e-17 0)
(0.625039 6.10492e-17 0)
(0.625839 6.61074e-17 0)
(0.626633 9.68956e-17 0)
(0.627421 1.30301e-16 0)
(0.628204 1.60872e-16 0)
(0.628981 1.84224e-16 0)
(0.629753 2.02898e-16 0)
(0.630519 2.26959e-16 0)
(0.63128 2.57147e-16 0)
(0.632036 2.69278e-16 0)
(0.632787 2.66169e-16 0)
(0.633532 2.87198e-16 0)
(0.634273 3.18183e-16 0)
(0.635008 3.42572e-16 0)
(0.635739 3.69339e-16 0)
(0.636465 4.10695e-16 0)
(0.637185 4.33626e-16 0)
(0.637902 4.342e-16 0)
(0.638613 4.42247e-16 0)
(0.63932 4.43821e-16 0)
(0.640022 4.48673e-16 0)
(0.64072 4.70874e-16 0)
(0.641413 4.91143e-16 0)
(0.642102 5.00738e-16 0)
(0.642787 5.246e-16 0)
(0.643467 5.64392e-16 0)
(0.644143 6.02514e-16 0)
(0.644815 6.21358e-16 0)
(0.645483 6.18562e-16 0)
(0.646146 6.12036e-16 0)
(0.646806 6.12554e-16 0)
(0.647461 6.34996e-16 0)
(0.648113 6.66377e-16 0)
(0.64876 6.86134e-16 0)
(0.649404 6.8148e-16 0)
(0.650044 6.89206e-16 0)
(0.65068 7.06565e-16 0)
(0.651312 7.20355e-16 0)
(0.651941 7.44053e-16 0)
(0.652565 7.71701e-16 0)
(0.653187 8.10352e-16 0)
(0.653804 8.59577e-16 0)
(0.654418 9.02662e-16 0)
(0.655029 9.23094e-16 0)
(0.655636 9.67836e-16 0)
(0.656239 1.01713e-15 0)
(0.656839 1.04867e-15 0)
(0.657436 1.07832e-15 0)
(0.658029 1.10152e-15 0)
(0.658619 1.1282e-15 0)
(0.659205 1.14515e-15 0)
(0.659789 1.15498e-15 0)
(0.660369 1.18209e-15 0)
(0.660946 1.21873e-15 0)
(0.661519 1.2501e-15 0)
(0.66209 1.26594e-15 0)
(0.662657 1.26336e-15 0)
(0.663222 1.27663e-15 0)
(0.663783 1.3018e-15 0)
(0.664341 1.31648e-15 0)
(0.664896 1.32846e-15 0)
(0.665448 1.34885e-15 0)
(0.665997 1.40112e-15 0)
(0.666544 1.45889e-15 0)
(0.667087 1.48742e-15 0)
(0.667628 1.49198e-15 0)
(0.668165 1.48992e-15 0)
(0.6687 1.53415e-15 0)
(0.669232 1.58672e-15 0)
(0.669761 1.6011e-15 0)
(0.670287 1.6119e-15 0)
(0.670811 1.62709e-15 0)
(0.671332 1.6516e-15 0)
(0.67185 1.68554e-15 0)
(0.672365 1.72031e-15 0)
(0.672878 1.74738e-15 0)
(0.673388 1.76701e-15 0)
(0.673896 1.78563e-15 0)
(0.674401 1.80073e-15 0)
(0.674903 1.80848e-15 0)
(0.675403 1.78446e-15 0)
(0.6759 1.75072e-15 0)
(0.676395 1.73839e-15 0)
(0.676887 1.73971e-15 0)
(0.677377 1.76013e-15 0)
(0.677864 1.79018e-15 0)
(0.678349 1.82007e-15 0)
(0.678831 1.84974e-15 0)
(0.679311 1.88196e-15 0)
(0.679789 1.92195e-15 0)
(0.680264 1.98569e-15 0)
(0.680737 2.04751e-15 0)
(0.681207 2.08105e-15 0)
(0.681675 2.1001e-15 0)
(0.682141 2.11658e-15 0)
(0.682604 2.1442e-15 0)
(0.683065 2.18439e-15 0)
(0.683524 2.22426e-15 0)
(0.683981 2.25244e-15 0)
(0.684435 2.27543e-15 0)
(0.684887 2.31767e-15 0)
(0.685337 2.35938e-15 0)
(0.685785 2.39937e-15 0)
(0.68623 2.44033e-15 0)
(0.686673 2.46875e-15 0)
(0.687114 2.50776e-15 0)
(0.687553 2.56996e-15 0)
(0.68799 2.62558e-15 0)
(0.688425 2.651e-15 0)
(0.688857 2.66761e-15 0)
(0.689288 2.69114e-15 0)
(0.689716 2.72343e-15 0)
(0.690142 2.75295e-15 0)
(0.690566 2.77103e-15 0)
(0.690988 2.78175e-15 0)
(0.691408 2.79524e-15 0)
(0.691826 2.82575e-15 0)
(0.692242 2.88746e-15 0)
(0.692656 2.94969e-15 0)
(0.693068 2.98401e-15 0)
(0.693478 3.00881e-15 0)
(0.693886 3.01703e-15 0)
(0.694292 3.02566e-15 0)
(0.694695 3.03439e-15 0)
(0.695097 3.04321e-15 0)
(0.695497 3.07101e-15 0)
(0.695895 3.10168e-15 0)
(0.696292 3.14714e-15 0)
(0.696686 3.18468e-15 0)
(0.697078 3.19717e-15 0)
(0.697468 3.20878e-15 0)
(0.697857 3.22571e-15 0)
(0.698243 3.26107e-15 0)
(0.698628 3.30022e-15 0)
(0.699011 3.32874e-15 0)
(0.699392 3.3575e-15 0)
(0.699771 3.38772e-15 0)
(0.700148 3.4231e-15 0)
(0.700523 3.48995e-15 0)
(0.700897 3.54432e-15 0)
(0.701269 3.55627e-15 0)
(0.701638 3.57416e-15 0)
(0.702006 3.60007e-15 0)
(0.702373 3.63017e-15 0)
(0.702737 3.65819e-15 0)
(0.7031 3.67521e-15 0)
(0.70346 3.67061e-15 0)
(0.703819 3.65226e-15 0)
(0.704177 3.67262e-15 0)
(0.704532 3.72467e-15 0)
(0.704886 3.75615e-15 0)
(0.705238 3.77804e-15 0)
(0.705588 3.80377e-15 0)
(0.705936 3.8615e-15 0)
(0.706283 3.9077e-15 0)
(0.706628 3.91466e-15 0)
(0.706971 3.92451e-15 0)
(0.707313 3.92994e-15 0)
(0.707652 3.94163e-15 0)
(0.70799 3.98541e-15 0)
(0.708327 4.02832e-15 0)
(0.708661 4.05206e-15 0)
(0.708994 4.0808e-15 0)
(0.709325 4.12007e-15 0)
(0.709655 4.14877e-15 0)
(0.709983 4.1723e-15 0)
(0.710309 4.20356e-15 0)
(0.710633 4.24438e-15 0)
(0.710956 4.28715e-15 0)
(0.711277 4.33204e-15 0)
(0.711597 4.34389e-15 0)
(0.711914 4.3386e-15 0)
(0.712231 4.36652e-15 0)
(0.712545 4.39857e-15 0)
(0.712858 4.40029e-15 0)
(0.713169 4.39577e-15 0)
(0.713479 4.4143e-15 0)
(0.713786 4.4393e-15 0)
(0.714093 4.42957e-15 0)
(0.714397 4.42838e-15 0)
(0.7147 4.48488e-15 0)
(0.715002 4.52363e-15 0)
(0.715302 4.53696e-15 0)
(0.7156 4.52914e-15 0)
(0.715896 4.518e-15 0)
(0.716191 4.54936e-15 0)
(0.716485 4.60146e-15 0)
(0.716776 4.6243e-15 0)
(0.717067 4.6278e-15 0)
(0.717355 4.65045e-15 0)
(0.717642 4.63888e-15 0)
(0.717928 4.62622e-15 0)
(0.718211 4.66143e-15 0)
(0.718494 4.7023e-15 0)
(0.718774 4.69269e-15 0)
(0.719053 4.65929e-15 0)
(0.719331 4.67548e-15 0)
(0.719607 4.70518e-15 0)
(0.719882 4.73505e-15 0)
(0.720155 4.76578e-15 0)
(0.720426 4.77134e-15 0)
(0.720696 4.75538e-15 0)
(0.720964 4.74492e-15 0)
(0.721231 4.7757e-15 0)
(0.721496 4.83099e-15 0)
(0.72176 4.87511e-15 0)
(0.722022 4.90937e-15 0)
(0.722283 4.94259e-15 0)
(0.722542 4.97884e-15 0)
(0.7228 5.0004e-15 0)
(0.723056 5.01492e-15 0)
(0.723311 5.0554e-15 0)
(0.723565 5.09376e-15 0)
(0.723816 5.10446e-15 0)
(0.724067 5.12565e-15 0)
(0.724316 5.12712e-15 0)
(0.724563 5.16001e-15 0)
(0.724809 5.22572e-15 0)
(0.725054 5.25391e-15 0)
(0.725297 5.25864e-15 0)
(0.725539 5.23656e-15 0)
(0.72578 5.18229e-15 0)
(0.726019 5.16613e-15 0)
(0.726256 5.20537e-15 0)
(0.726493 5.25084e-15 0)
(0.726727 5.29036e-15 0)
(0.726961 5.31208e-15 0)
(0.727193 5.33794e-15 0)
(0.727424 5.34895e-15 0)
(0.727654 5.36257e-15 0)
(0.727882 5.41082e-15 0)
(0.728109 5.45221e-15 0)
(0.728335 5.48262e-15 0)
(0.72856 5.51582e-15 0)
(0.728783 5.55012e-15 0)
(0.729006 5.58317e-15 0)
(0.729227 5.62272e-15 0)
(0.729447 5.61716e-15 0)
(0.729665 5.60738e-15 0)
(0.729883 5.64052e-15 0)
(0.7301 5.63202e-15 0)
(0.730316 5.58876e-15 0)
(0.73053 5.58036e-15 0)
(0.730744 5.63642e-15 0)
(0.730957 5.68177e-15 0)
(0.73117 5.69136e-15 0)
(0.731381 5.71579e-15 0)
(0.731592 5.74815e-15 0)
(0.731802 5.78217e-15 0)
(0.732012 5.82018e-15 0)
(0.732221 5.85849e-15 0)
(0.73243 5.89093e-15 0)
(0.732639 5.88382e-15 0)
(0.732848 5.84987e-15 0)
(0.733057 5.84814e-15 0)
(0.733267 5.87079e-15 0)
(0.733478 5.89691e-15 0)
(0.733689 5.92244e-15 0)
(0.733903 5.93831e-15 0)
(0.734118 5.94758e-15 0)
(0.734337 5.9635e-15 0)
(0.73456 5.98006e-15 0)
(0.734789 6.0083e-15 0)
(0.735026 6.04707e-15 0)
(0.735277 6.07158e-15 0)
(0.735548 6.09361e-15 0)
(0.735858 6.13458e-15 0)
(0.736245 6.07718e-15 0)
(0.736702 5.40365e-15 0)
)
;

boundaryField
{
    inlet
    {
        type            cyclic;
    }
    outlet
    {
        type            cyclic;
    }
    top
    {
        type            zeroGradient;
    }
    bottom
    {
        type            fixedValue;
        value           uniform (0 0 0);
    }
    frontAndBackPlanes
    {
        type            empty;
    }
}


// ************************************************************************* //
