/*--------------------------------*- C++ -*----------------------------------*\
| =========                 |                                                 |
| \\      /  F ield         | OpenFOAM: The Open Source CFD Toolbox           |
|  \\    /   O peration     | Version:  4.0                                   |
|   \\  /    A nd           | Web:      www.OpenFOAM.org                      |
|    \\/     M anipulation  |                                                 |
\*---------------------------------------------------------------------------*/
FoamFile
{
    version     2.0;
    format      ascii;
    class       volScalarField;
    location    "0";
    object      alphas;
}
// * * * * * * * * * * * * * * * * * * * * * * * * * * * * * * * * * * * * * //

dimensions      [0 0 0 0 0 0 0];

internalField   nonuniform List<scalar> 
400
(
1.05975
1.0597
1.05965
1.05958
1.05951
1.05942
1.05931
1.05918
1.05903
1.05885
1.05864
1.05838
1.05809
1.05773
1.05731
1.05682
1.05623
1.05553
1.05471
1.05373
1.05258
1.05122
1.04961
1.0477
1.04546
1.0428
1.03968
1.036
1.03167
1.02659
1.02062
1.01365
1.0055
0.996008
0.98499
0.97224
0.95755
0.940702
0.921484
0.899698
0.875172
0.84778
0.817454
0.784202
0.748132
0.709454
0.668488
0.625666
0.581512
0.536624
0.491642
0.447208
0.403936
0.362376
0.322986
0.286122
0.252026
0.220834
0.192582
0.167224
0.144648
0.124696
0.107172
0.0918697
0.0785718
0.0670656
0.0571459
0.0486218
0.0413163
0.0350716
0.0297421
0.0252025
0.0213421
0.0180622
0.0152797
0.0129199
0.0109204
0.00922817
0.00779612
0.00658449
0.00556046
0.0046957
0.00396405
0.00334616
0.00282428
0.00238399
0.00201199
0.00169797
0.00143243
0.00120955
0.00102013
0.000860445
0.000726198
0.00061245
0.000517564
0.000436158
0.000368064
0.000310297
0.000262025
0.000221545
0.000186266
0.000157688
0.000132387
0.00011201
9.42543e-05
7.98673e-05
6.76351e-05
5.6377e-05
4.79409e-05
4.01982e-05
3.40406e-05
2.83766e-05
2.41291e-05
2.0233e-05
1.76332e-05
1.42835e-05
1.21449e-05
1.01842e-05
8.37376e-06
7.69e-06
6.11312e-06
5.62643e-06
4.21583e-06
3.86942e-06
3.57717e-06
2.3306e-06
2.12258e-06
1.94708e-06
1.79902e-06
1.6741e-06
1.56872e-06
4.79808e-07
4.04797e-07
3.41513e-07
2.88123e-07
2.43079e-07
2.05077e-07
1.73017e-07
1.45968e-07
1.23148e-07
1.03896e-07
8.76531e-08
7.39499e-08
6.23889e-08
5.26353e-08
4.44066e-08
3.74643e-08
3.16073e-08
2.6666e-08
2.24971e-08
1.898e-08
1.60128e-08
1.35094e-08
1.13974e-08
9.61561e-09
8.11235e-09
6.8441e-09
5.77413e-09
4.87143e-09
4.10985e-09
3.46734e-09
2.92527e-09
2.46795e-09
2.08212e-09
1.75661e-09
1.48199e-09
1.25031e-09
1.05484e-09
8.8993e-10
7.50803e-10
6.33426e-10
5.34399e-10
4.50854e-10
3.80369e-10
3.20904e-10
2.70736e-10
2.2841e-10
1.92702e-10
1.62576e-10
1.37159e-10
1.15716e-10
9.76259e-11
8.23636e-11
6.94872e-11
5.86239e-11
4.94589e-11
4.17268e-11
3.52034e-11
2.96999e-11
2.50567e-11
2.11395e-11
1.78346e-11
1.50465e-11
1.26942e-11
1.07095e-11
9.03535e-12
7.62277e-12
6.4311e-12
5.42572e-12
4.57745e-12
3.8619e-12
3.25814e-12
2.74879e-12
2.31899e-12
1.95648e-12
1.65063e-12
1.39255e-12
1.1749e-12
9.91173e-13
8.36242e-13
7.05532e-13
5.95237e-13
5.02158e-13
4.23603e-13
3.57429e-13
3.01533e-13
2.54454e-13
2.14646e-13
1.81095e-13
1.52739e-13
1.28889e-13
1.08789e-13
9.17644e-14
7.74303e-14
6.52889e-14
5.50847e-14
4.64517e-14
3.92453e-14
3.30536e-14
2.79742e-14
2.35367e-14
1.98452e-14
1.67754e-14
1.42032e-14
1.19516e-14
1.0021e-14
8.45656e-15
7.19313e-15
6.06738e-15
5.07261e-15
4.26103e-15
3.5738e-15
3.01092e-15
2.62457e-15
2.13385e-15
1.87184e-15
1.56431e-15
1.25677e-15
1.12576e-15
9.9476e-16
8.11574e-16
6.87228e-16
5.62882e-16
4.97381e-16
3.79697e-16
3.14193e-16
2.55351e-16
2.48689e-16
1.89847e-16
1.31005e-16
1.83188e-16
1.24346e-16
6.55031e-17
6.55031e-17
6.6613e-18
6.6613e-18
6.6613e-18
5.88418e-17
5.88418e-17
5.88418e-17
5.88418e-17
5.88418e-17
5.88418e-17
5.88418e-17
0
0
0
0
0
0
0
0
0
0
0
0
0
0
0
0
0
0
0
0
0
0
0
0
0
0
0
0
0
0
0
0
0
0
0
0
0
0
0
0
0
0
0
0
0
0
0
0
0
0
0
0
0
0
0
0
0
0
0
0
0
0
0
0
0
0
0
0
0
0
0
0
0
0
0
0
0
0
0
0
0
0
0
0
0
0
0
0
0
0
0
0
0
0
0
0
0
0
0
0
0
0
0
0
0
0
0
0
0
0
0
0
0
0
0
0
0
0
0
0
0
0
0
0
0
0
)
;

boundaryField
{
    inlet
    {
        type            cyclic;
    }
    outlet
    {
        type            cyclic;
    }
    top
    {
        type            calculated;
        value           uniform 0;
    }
    bottom
    {
        type            calculated;
        value           uniform 1.05975;
    }
    frontAndBackPlanes
    {
        type            empty;
    }
}


// ************************************************************************* //
