/*--------------------------------*- C++ -*----------------------------------*\
| =========                 |                                                 |
| \\      /  F ield         | OpenFOAM: The Open Source CFD Toolbox           |
|  \\    /   O peration     | Version:  4.0                                   |
|   \\  /    A nd           | Web:      www.OpenFOAM.org                      |
|    \\/     M anipulation  |                                                 |
\*---------------------------------------------------------------------------*/
FoamFile
{
    version     2.0;
    format      ascii;
    class       volScalarField;
    location    "0";
    object      alpha.water;
}
// * * * * * * * * * * * * * * * * * * * * * * * * * * * * * * * * * * * * * //

dimensions      [0 0 0 0 0 0 0];

internalField   nonuniform List<scalar> 
400
(
0.470125
0.470148
0.470175
0.470208
0.470246
0.470292
0.470345
0.470409
0.470485
0.470575
0.470682
0.470808
0.470957
0.471134
0.471344
0.471592
0.471886
0.472234
0.472646
0.473133
0.473709
0.474391
0.475197
0.476149
0.477272
0.478598
0.480161
0.482001
0.484165
0.486707
0.489688
0.493177
0.497251
0.501996
0.507505
0.51388
0.521225
0.529649
0.539258
0.550151
0.562414
0.57611
0.591273
0.607899
0.625934
0.645273
0.665756
0.687167
0.709244
0.731688
0.754179
0.776396
0.798032
0.818812
0.838507
0.856939
0.873987
0.889583
0.903709
0.916388
0.927676
0.937652
0.946414
0.954065
0.960714
0.966467
0.971427
0.975689
0.979342
0.982464
0.985129
0.987399
0.989329
0.990969
0.99236
0.99354
0.99454
0.995386
0.996102
0.996708
0.99722
0.997652
0.998018
0.998327
0.998588
0.998808
0.998994
0.999151
0.999284
0.999395
0.99949
0.99957
0.999637
0.999694
0.999741
0.999782
0.999816
0.999845
0.999869
0.999889
0.999907
0.999921
0.999934
0.999944
0.999953
0.99996
0.999966
0.999972
0.999976
0.99998
0.999983
0.999986
0.999988
0.99999
0.999991
0.999993
0.999994
0.999995
0.999996
0.999996
0.999997
0.999997
0.999998
0.999998
0.999998
0.999999
0.999999
0.999999
0.999999
0.999999
0.999999
1
1
1
1
1
1
1
1
1
1
1
1
1
1
1
1
1
1
1
1
1
1
1
1
1
1
1
1
1
1
1
1
1
1
1
1
1
1
1
1
1
1
1
1
1
1
1
1
1
1
1
1
1
1
1
1
1
1
1
1
1
1
1
1
1
1
1
1
1
1
1
1
1
1
1
1
1
1
1
1
1
1
1
1
1
1
1
1
1
1
1
1
1
1
1
1
1
1
1
1
1
1
1
1
1
1
1
1
1
1
1
1
1
1
1
1
1
1
1
1
1
1
1
1
1
1
1
1
1
1
1
1
1
1
1
1
1
1
1
1
1
1
1
1
1
1
1
1
1
1
1
1
1
1
1
1
1
1
1
1
1
1
1
1
1
1
1
1
1
1
1
1
1
1
1
1
1
1
1
1
1
1
1
1
1
1
1
1
1
1
1
1
1
1
1
1
1
1
1
1
1
1
1
1
1
1
1
1
1
1
1
1
1
1
1
1
1
1
1
1
1
1
1
1
1
1
1
1
1
1
1
1
1
1
1
1
1
1
1
1
1
1
1
1
1
1
1
1
1
1
1
1
1
1
1
1
1
1
1
1
1
1
1
1
1
1
1
1
1
)
;

boundaryField
{
    inlet
    {
        type            cyclic;
    }
    outlet
    {
        type            cyclic;
    }
    top
    {
        type            zeroGradient;
    }
    bottom
    {
        type            zeroGradient;
    }
    frontAndBackPlanes
    {
        type            empty;
    }
}


// ************************************************************************* //
