/*--------------------------------*- C++ -*----------------------------------*\
| =========                 |                                                 |
| \\      /  F ield         | OpenFOAM: The Open Source CFD Toolbox           |
|  \\    /   O peration     | Version:  4.0                                   |
|   \\  /    A nd           | Web:      www.OpenFOAM.org                      |
|    \\/     M anipulation  |                                                 |
\*---------------------------------------------------------------------------*/
FoamFile
{
    version     2.0;
    format      ascii;
    class       volScalarField;
    location    "0";
    object      alpha.sand;
}
// * * * * * * * * * * * * * * * * * * * * * * * * * * * * * * * * * * * * * //

dimensions      [0 0 0 0 0 0 0];

internalField   nonuniform List<scalar> 
400
(
0.529875
0.529852
0.529825
0.529792
0.529754
0.529708
0.529655
0.529591
0.529515
0.529425
0.529318
0.529192
0.529043
0.528866
0.528656
0.528408
0.528114
0.527766
0.527354
0.526867
0.526291
0.525609
0.524803
0.523851
0.522728
0.521402
0.519839
0.517999
0.515835
0.513293
0.510312
0.506823
0.502749
0.498004
0.492495
0.48612
0.478775
0.470351
0.460742
0.449849
0.437586
0.42389
0.408727
0.392101
0.374066
0.354727
0.334244
0.312833
0.290756
0.268312
0.245821
0.223604
0.201968
0.181188
0.161493
0.143061
0.126013
0.110417
0.0962909
0.0836121
0.0723243
0.0623476
0.053586
0.0459347
0.0392858
0.0335326
0.0285729
0.0243108
0.0206583
0.0175356
0.0148711
0.0126015
0.0106711
0.00903124
0.00763969
0.0064599
0.00546039
0.00461417
0.00389812
0.00329249
0.00278046
0.0023477
0.00198205
0.00167316
0.00141228
0.00119199
0.00100599
0.000848975
0.000716429
0.000604554
0.000510132
0.000430445
0.000363198
0.00030645
0.000258564
0.000218158
0.000184064
0.000155297
0.000131025
0.000110545
9.32661e-05
7.86875e-05
6.63874e-05
5.60098e-05
4.72543e-05
3.98673e-05
3.36351e-05
2.8377e-05
2.39409e-05
2.01982e-05
1.70406e-05
1.43766e-05
1.21291e-05
1.0233e-05
8.63321e-06
7.28355e-06
6.14489e-06
5.18424e-06
4.37376e-06
3.69e-06
3.11312e-06
2.62643e-06
2.21583e-06
1.86942e-06
1.57717e-06
1.3306e-06
1.12258e-06
9.47082e-07
7.9902e-07
6.74105e-07
5.68719e-07
4.79808e-07
4.04797e-07
3.41513e-07
2.88123e-07
2.43079e-07
2.05077e-07
1.73017e-07
1.45968e-07
1.23148e-07
1.03896e-07
8.76531e-08
7.39499e-08
6.23889e-08
5.26353e-08
4.44066e-08
3.74643e-08
3.16073e-08
2.6666e-08
2.24971e-08
1.898e-08
1.60128e-08
1.35094e-08
1.13974e-08
9.61561e-09
8.11235e-09
6.8441e-09
5.77413e-09
4.87143e-09
4.10985e-09
3.46734e-09
2.92527e-09
2.46795e-09
2.08212e-09
1.75661e-09
1.48199e-09
1.25031e-09
1.05484e-09
8.8993e-10
7.50803e-10
6.33426e-10
5.34399e-10
4.50854e-10
3.80369e-10
3.20904e-10
2.70736e-10
2.2841e-10
1.92702e-10
1.62576e-10
1.37159e-10
1.15716e-10
9.76259e-11
8.23635e-11
6.94872e-11
5.86239e-11
4.94589e-11
4.17268e-11
3.52034e-11
2.96999e-11
2.50567e-11
2.11395e-11
1.78346e-11
1.50465e-11
1.26942e-11
1.07096e-11
9.03534e-12
7.62278e-12
6.43109e-12
5.42569e-12
4.57745e-12
3.86185e-12
3.2581e-12
2.74874e-12
2.31901e-12
1.95646e-12
1.6506e-12
1.39255e-12
1.17487e-12
9.9119e-13
8.36231e-13
7.05484e-13
5.95214e-13
5.02156e-13
4.23632e-13
3.57405e-13
3.01535e-13
2.54403e-13
2.14626e-13
1.81086e-13
1.52753e-13
1.28893e-13
1.0874e-13
9.17344e-14
7.74064e-14
6.5285e-14
5.50759e-14
4.6485e-14
3.92181e-14
3.30691e-14
2.79204e-14
2.35367e-14
1.98591e-14
1.67699e-14
1.41515e-14
1.19155e-14
1.0062e-14
8.50264e-15
7.14928e-15
6.03129e-15
5.08982e-15
4.29545e-15
3.61877e-15
3.05977e-15
2.58904e-15
2.17715e-15
1.8241e-15
1.55931e-15
1.29452e-15
1.11799e-15
9.41469e-16
7.94365e-16
6.76681e-16
5.58997e-16
4.70735e-16
4.11893e-16
3.2363e-16
2.94209e-16
2.35367e-16
2.05946e-16
1.76525e-16
1.47105e-16
1.17684e-16
8.82627e-17
8.82627e-17
5.88418e-17
5.88418e-17
5.88418e-17
2.94209e-17
2.94209e-17
2.94209e-17
2.94209e-17
2.94209e-17
2.94209e-17
2.94209e-17
0
0
0
0
0
0
0
0
0
0
0
0
0
0
0
0
0
0
0
0
0
0
0
0
0
0
0
0
0
0
0
0
0
0
0
0
0
0
0
0
0
0
0
0
0
0
0
0
0
0
0
0
0
0
0
0
0
0
0
0
0
0
0
0
0
0
0
0
0
0
0
0
0
0
0
0
0
0
0
0
0
0
0
0
0
0
0
0
0
0
0
0
0
0
0
0
0
0
0
0
0
0
0
0
0
0
0
0
0
0
0
0
0
0
0
0
0
0
0
0
0
0
0
0
0
0
)
;

boundaryField
{
    inlet
    {
        type            cyclic;
    }
    outlet
    {
        type            cyclic;
    }
    top
    {
        type            zeroGradient;
    }
    bottom
    {
        type            zeroGradient;
    }
    frontAndBackPlanes
    {
        type            empty;
    }
}


// ************************************************************************* //
