/*--------------------------------*- C++ -*----------------------------------*\
| =========                 |                                                 |
| \\      /  F ield         | OpenFOAM: The Open Source CFD Toolbox           |
|  \\    /   O peration     | Version:  4.0                                   |
|   \\  /    A nd           | Web:      www.OpenFOAM.org                      |
|    \\/     M anipulation  |                                                 |
\*---------------------------------------------------------------------------*/
FoamFile
{
    version     2.0;
    format      ascii;
    class       volScalarField;
    location    "0";
    object      alpha.air;
}
// * * * * * * * * * * * * * * * * * * * * * * * * * * * * * * * * * * * * * //

dimensions      [0 0 0 0 0 0 0];

internalField   nonuniform List<scalar> 
400
(
0
0
0
-5.55112e-17
5.55112e-17
5.55112e-17
0
-5.55112e-17
5.55112e-17
-5.55112e-17
5.55112e-17
0
-5.55112e-17
5.55112e-17
0
0
0
5.55112e-17
0
0
5.55112e-17
0
0
5.55112e-17
5.55112e-17
-5.55112e-17
-5.55112e-17
0
-5.55112e-17
0
0
0
0
0
0
0
0
0
0
1.11022e-16
0
0
-1.11022e-16
0
0
0
0
0
0
0
-1.11022e-16
0
0
0
0
0
1.11022e-16
0
1e-07
-1e-07
-3e-07
4e-07
0
3e-07
2e-07
4e-07
1e-07
2e-07
-3e-07
4e-07
-1e-07
-5e-07
-1e-07
-2.4e-07
3.1e-07
1e-07
-3.9e-07
-1.7e-07
-1.2e-07
-4.9e-07
-4.6e-07
3e-07
-5e-08
-1.6e-07
-2.8e-07
1e-08
1e-08
2.5e-08
-4.29e-07
4.46e-07
-1.32e-07
-4.45e-07
-1.98e-07
-4.5e-07
4.36e-07
-1.58e-07
-6.4e-08
-2.97e-07
-2.5e-08
4.55e-07
-2.661e-07
3.125e-07
-3.874e-07
-9.8e-09
-2.543e-07
1.327e-07
3.649e-07
-3.77e-07
5.91e-08
-1.982e-07
-4.06e-08
-3.766e-07
-1.291e-07
-2.33e-07
3.6679e-07
-2.8355e-07
-1.4489e-07
-1.8424e-07
-3.7376e-07
3.1e-07
-1.1312e-07
3.7357e-07
-2.1583e-07
1.3058e-07
4.2283e-07
-3.306e-07
-1.2258e-07
5.2918e-08
2.0098e-07
3.25895e-07
4.31281e-07
-4.79808e-07
-4.04797e-07
-3.41513e-07
-2.88123e-07
-2.43079e-07
-2.05077e-07
-1.73017e-07
-1.45968e-07
-1.23148e-07
-1.03896e-07
-8.76531e-08
-7.39499e-08
-6.23889e-08
-5.26353e-08
-4.44066e-08
-3.74643e-08
-3.16073e-08
-2.6666e-08
-2.24971e-08
-1.898e-08
-1.60128e-08
-1.35094e-08
-1.13974e-08
-9.61561e-09
-8.11235e-09
-6.8441e-09
-5.77413e-09
-4.87143e-09
-4.10985e-09
-3.46734e-09
-2.92527e-09
-2.46795e-09
-2.08212e-09
-1.75661e-09
-1.48199e-09
-1.25031e-09
-1.05484e-09
-8.8993e-10
-7.50803e-10
-6.33426e-10
-5.34399e-10
-4.50854e-10
-3.80369e-10
-3.20904e-10
-2.70736e-10
-2.2841e-10
-1.92702e-10
-1.62576e-10
-1.37159e-10
-1.15716e-10
-9.76259e-11
-8.23634e-11
-6.94872e-11
-5.86239e-11
-4.94589e-11
-4.17268e-11
-3.52034e-11
-2.96999e-11
-2.50567e-11
-2.11395e-11
-1.78346e-11
-1.50465e-11
-1.26942e-11
-1.07097e-11
-9.03533e-12
-7.62279e-12
-6.43108e-12
-5.42566e-12
-4.57745e-12
-3.8618e-12
-3.25806e-12
-2.74869e-12
-2.31903e-12
-1.95644e-12
-1.65057e-12
-1.39255e-12
-1.17484e-12
-9.91207e-13
-8.3622e-13
-7.05436e-13
-5.95191e-13
-5.02154e-13
-4.23661e-13
-3.57381e-13
-3.01537e-13
-2.54352e-13
-2.14606e-13
-1.81077e-13
-1.52767e-13
-1.28897e-13
-1.08691e-13
-9.17044e-14
-7.73825e-14
-6.52811e-14
-5.50671e-14
-4.65183e-14
-3.91909e-14
-3.30846e-14
-2.78666e-14
-2.35367e-14
-1.9873e-14
-1.67644e-14
-1.40998e-14
-1.18794e-14
-1.0103e-14
-8.54872e-15
-7.10543e-15
-5.9952e-15
-5.10703e-15
-4.32987e-15
-3.66374e-15
-3.10862e-15
-2.55351e-15
-2.22045e-15
-1.77636e-15
-1.55431e-15
-1.33227e-15
-1.11022e-15
-8.88178e-16
-7.77156e-16
-6.66134e-16
-5.55112e-16
-4.44089e-16
-4.44089e-16
-3.33067e-16
-3.33067e-16
-2.22045e-16
-2.22045e-16
-2.22045e-16
-1.11022e-16
-1.11022e-16
-1.11022e-16
-1.11022e-16
-1.11022e-16
-1.11022e-16
-1.11022e-16
0
0
0
0
0
0
0
0
0
0
0
0
0
0
0
0
0
0
0
0
0
0
0
0
0
0
0
0
0
0
0
0
0
0
0
0
0
0
0
0
0
0
0
0
0
0
0
0
0
0
0
0
0
0
0
0
0
0
0
0
0
0
0
0
0
0
0
0
0
0
0
0
0
0
0
0
0
0
0
0
0
0
0
0
0
0
0
0
0
0
0
0
0
0
0
0
0
0
0
0
0
0
0
0
0
0
0
0
0
0
0
0
0
0
0
0
0
0
0
0
0
0
0
0
0
0
0
0
0
0
0
0
0
)
;

boundaryField
{
    inlet
    {
        type            cyclic;
    }
    outlet
    {
        type            cyclic;
    }
    top
    {
        type            zeroGradient;
    }
    bottom
    {
        type            zeroGradient;
    }
    frontAndBackPlanes
    {
        type            empty;
    }
}


// ************************************************************************* //
